Eqn,Compound Number,Name,Formula,CAS,Mol. Wt.,C1,C2,C3,C4,"Tmin, K",Density at Tmin,"Tmax, K",Density at Tmax
105,195,N-Methylacetamide,C3H7NO,79-16-3,73.09378,0.88268,0.23568,718,0.27379,301.015,13.012,718.00,3.7452
105,196,Methylacetate,C3H6O2,79-20-9,74.07854,1.13,0.2593,50655,0.2764,175.015,14.475,506.055,4.3579
105,197,Methylacetylene,C3H4,74-99-7,40.06386,1.685,0.26436,4024,0.27987,170.045,19.031,402.040,6.0845
105,198,Methylacrylate,C4H6O2,96-33-3,86.08924,0.97286,0.26267,536,0.258,196.032,12.23,536.00,3.737
105,199,Methylamine,CH5N,74-89-5,31.0571,1.39,0.21405,4305,0.2275,179.069,25.378,430.05,6.4938
105,200,Methylbenzoate,C8H8O2,93-58-3,136.014792,0.53382,0.23274,693,0.28147,260.075,8.222,693.00,2.2936
105,201,"3-Methyl-1,2-butadiene",C5H8,598-25-4,68.11702,0.84623,0.24625,490,0.2941,159.053,11.994,490.00,3.4365
105,202,2-Methylbutane,C5H12,78-78-4,72.14878,0.91991,0.27815,4604,0.28667,113.025,10.764,460.040,3.372
105,203,2-Methylbutanoicacid,C5H10O2,116-53-0,102.01317,0.72762,0.25244,643,0.28571,193.00,9.9915,643.00,2.8823
105,204,3-Methyl-1-butanol,C5H12O,123-51-3,88.1482,0.8189,0.26974,5772,0.23573,155.095,10.248,577.020,3.0359
105,205,2-Methyl-1-butene,C5H10,563-46-2,70.1329,0.91619,0.26752,465,0.28164,135.058,11.332,465.00,3.4248
105,206,2-Methyl-2-butene,C5H10,513-35-9,70.1329,0.93391,0.27275,470,0.2578,139.039,11.216,470.00,3.4241
105,207,2-Methyl-1-butene-3-yne,C5H6,78-80-8,66.1114,1.1157,0.27671,492,0.3821,160.015,12.581,492.00,4.0320
105,208,Methylbutylether,C5H12O,628-28-4,88.14818,0.8363,0.27514,51274,0.27553,157.048,9.7581,512.074,3.0395
105,209,Methylbutylsulfide,C5H12S,628-29-5,104.0214,0.75509,0.27183,593,0.29127,175.030,9.056,593.00,2.7778
105,210,3-Methyl-1-butyne,C5H8,598-23-2,68.11702,0.94575,0.268,4632,0.3807,183.045,11.519,463.020,3.6364
105,211,Methylbutyrate,C5H10O2,623-42-7,102.01317,0.76983,0.26173,5545,0.26879,187.035,9.7638,554.050,2.9413
105,212,Methylchlorosilane,CH5ClSi,993-00-0,80.5889,1.0674,0.26257,442,0.26569,139.05,13.626,442.00,4.0652
105,213,Methylcyclohexane,C7H14,108-87-2,98.18606,0.73109,0.26971,5721,0.29185,146.058,9.0173,572.010,2.717
105,214,1-Methylcyclohexanol,C7H14O,590-67-0,114.018546,0.713,0.266,686,0.28571,285.015,8.291,686.00,2.6365
105,215,cis-2-Methylcyclohexanol,C7H14O,7443-70-1,114.018546,0.7973,0.26544,614,0.2616,280.015,8.2931,614.00,2.6738
105,216,trans-2-Methylcyclohexanol,C7H14O,7443-52-9,114.018546,0.72836,0.27241,617,0.2478,269.015,8.2628,617.00,2.6738
105,217,Methylcyclopentane,C6H12,96-37-7,84.15948,0.84758,0.2737,5327,0.28258,130.073,10.491,532.070,3.1349
105,218,1-Methylcyclopentene,C6H10,693-89-0,82.1436,0.88824,0.26914,542,0.27874,146.062,10.98,542.00,3.33
105,219,3-Methylcyclopentene,C6H10,1120-62-3,82.1436,0.919,0.276,526,0.26756,168.054,10.538,526.00,3.34
105,220,Methyldichlorosilane,CH4Cl2Si,75-54-7,115.03396,0.97608,0.28209,483,0.22529,182.055,10.789,483.00,3.462
105,221,Methylethylether,C3H8O,540-67-0,60.09502,1.2635,0.27878,4378,0.2744,160.00,13.995,437.080,4.5322
105,222,Methylethylketone,C4H8O,78-93-3,72.1572,0.93767,0.2535,5355,0.29964,186.048,12.663,535.050,3.7454
105,223,Methylethylsulfide,C3H8S,624-89-5,76.1606,1.067,0.27102,533,0.29364,167.023,12.671,533.00,3.9370
105,224,Methylformate,C2H4O2,107-31-3,60.05196,1.525,0.2634,4872,0.286,174.015,18.811,487.020,5.7897
105,225,Methylisobutylether,C5H12O,625-44-5,88.14818,0.845,0.27638,497,0.27645,188.00,9.3871,497.00,3.0395
105,226,Methylisobutylketone,C6H12O,108-44105,100.015888,0.71687,0.26453,5746,0.28918,189.015,8.8617,574.060,2.710
105,227,MethylIsocyanate,C2H3NO,624-83-9,57.05132,1.0228,0.2692,488,0.28571,256.015,17.666,488.00,4.9430
105,228,Methylisopropylether,C4H10O,598-53-8,74.1216,0.97887,0.2717,46448,0.28998,127.093,11.933,464.048,3.6232
105,229,Methylisopropylketone,C5H10O,563-80-4,86.1323,0.86567,0.26836,5534,0.28364,180.015,10.46,553.040,3.2258
105,230,Methylisopropylsulfide,C4H10S,1551-21-9,90.1872,0.78912,0.25915,5531,0.26512,171.064,10.352,553.010,3.0450
105,231,Methylmercaptan,CH4S,74-93-1,48.1746,1.9323,0.2818,46995,0.28523,150.018,21.564,469.095,6.8966
105,232,Methylmethacrylate,C5H8O2,80-62-6,100.011582,0.7761,0.2568,566,0.29773,224.095,10.176,566.00,3.0960
105,233,2-Methyloctanoicacid,C9H18O2,3004-93-1,158.02382,0.4416,0.2521,694,0.28532,240.00,5.938,694.00,1.7517
105,234,2-Methylpentane,C6H14,107-83-5,86.17536,0.72701,0.26754,4977,0.28268,119.055,9.241,497.070,2.7174
105,235,Methylpentylether,C6H14O,628-80-8,102.017476,0.714,0.26981,54649,0.29974,176.00,8.445,546.049,2.6316
105,236,2-Methylpropane,C4H10,75-28-5,58.1222,1.0631,0.27506,4078,0.2758,113.054,12.574,407.080,3.8650
105,237,2-Methyl-2-propanol,C4H10O,75-65-0,74.1216,0.92128,0.25442,5062,0.27586,298.097,10.556,506.020,3.6211
105,238,2-Methylpropene,C4H8,115-44142,56.1632,1.1446,0.2724,4179,0.28172,132.081,13.57,417.090,4.219
105,239,Methylpropionate,C4H8O2,554-44166,88.1512,0.9147,0.2594,5306,0.2774,185.065,11.678,530.060,3.5262
105,240,Methylpropylether,C4H10O,557-17-5,74.1216,0.96145,0.26536,47625,0.388,133.097,12.043,476.025,3.6232
105,241,Methylpropylsulfide,C4H10S,3877-15-4,90.1872,0.87496,0.26862,565,0.3259,160.017,10.689,565.00,3.2572
105,242,Methylsilane,CH6Si,992-94-9,46.14384,1.352,0.26757,3525,0.28799,116.034,15.791,352.050,4.8780
105,243,alpha-Methylstyrene,C9H10,98-83-9,118.01757,0.64856,0.25877,654,0.31444,249.095,8.099,654.00,2.563
105,244,Methyltert-butylether,C5H12O,1634-43925,88.1482,0.817948,0.269105,4971,0.28571,164.055,9.7955,497.010,3.0395
105,245,Methylvinylether,C3H6O,107-25-5,58.07914,1.2587,0.26433,437,0.25819,151.015,15.691,437.00,4.7619
105,246,Naphthalene,C10H8,91-20-3,128.017052,0.6348,0.25838,7484,0.27727,333.015,7.7545,748.040,2.4568
105,247,Neon,Ne,7440-43839,20.1797,7.3718,0.367,44.4,0.2786,24.56,61.796,44.40,24.0360
105,248,Nitroethane,C2H5NO2,79-24-3,75.0666,124,0.23655,593,0.278,183.063,15.556,593.00,4.2376
105,249,Nitrogen,N2,7727-37-9,28.0134,3.291,0.2861,1262,0.2966,63.15,31.063,126.020,11.2170
105,250,Nitrogentrifluoride,F3N,7783-54-2,71.0191,2.3736,0.2817,234,0.29529,66.46,26.555,234.00,8.4260
105,251,Nitromethane,CH3NO2,75-52-5,61.04002,1.3728,0.23793,58815,0.29601,244.060,19.632,588.015,5.7698
105,252,Nitrousoxide,N2O,10024-97-2,44.0128,2.781,0.27244,30957,0.2882,182.030,27.928,309.057,10.280
105,253,Nitricoxide,NO,10102-43-9,30.061,5.246,0.344,18015,0.242,109.050,44.487,180.015,17.2340
105,254,Nonadecane,C19H40,629-92-5,268.05209,0.19199,0.23337,758,0.28571,305.04,2.8889,758.00,0.8227
105,255,Nonanal,C9H18O,124-19-6,142.023862,0.473233,0.256918,6585,0.28571,267.030,5.9415,658.050,1.8420
105,256,Nonane,C9H20,111-84-2,128.02551,0.46321,0.25444,5946,0.28571,219.066,6.0427,594.060,1.825
105,257,Nonanoicacid,C9H18O2,112-36647,158.0238,0.41582,0.24284,7107,0.336,285.055,5.7592,710.070,1.7123
105,258,1-Nonanol,C9H20O,143-44051,144.02545,0.43682,0.25161,6709,0.2498,268.015,5.8496,670.090,1.7361
105,259,2-Nonanol,C9H20O,628-99-9,144.0255,0.419258,0.241912,6495,0.28571,238.015,6.0223,649.050,1.7331
105,260,1-Nonene,C9H18,124-44143,126.023922,0.48661,0.25722,5931,0.28571,191.091,6.3717,593.010,1.8918
105,261,Nonylmercaptan,C9H20S,1455-21-6,160.03201,0.47377,0.2752,681,0.3284,253.05,5.4532,681.00,1.7513
105,262,1-Nonyne,C9H16,3452-44077,124.022334,0.52152,0.25918,5985,0.29177,223.015,6.5369,598.05,2.0122
105,263,Octadecane,C18H38,593-45-3,254.049432,0.2448,0.23474,747,0.28571,301.031,3.0418,747.00,0.8711
105,264,Octanal,C8H16O,124-13-0,128.0212,0.525901,0.25664,6389,0.28571,251.065,6.668,638.090,2.0492
105,265,Octane,C8H18,111-65-9,114.022852,0.5266,0.25693,5687,0.28571,216.038,6.749,568.070,2.0496
105,266,Octanoicacid,C8H16O2,124-44014,144.0211,0.48251,0.25196,69426,0.26842,289.065,6.317,694.026,1.9150
105,267,1-Octanol,C8H18O,111-87-5,130.022792,0.48979,0.24931,6523,0.27824,257.065,6.5738,652.030,1.9646
105,268,2-Octanol,C8H18O,123-96-6,130.0228,0.52497,0.26186,6298,0.25257,241.055,6.5625,629.080,2.048
105,269,2-Octanone,C8H16O,111-13-7,128.02124,0.56,0.24851,6327,0.29942,252.085,6.6477,632.070,2.0122
105,270,3-Octanone,C8H16O,106-68-3,128.02124,0.518,0.25386,6277,0.26735,255.055,6.6283,627.070,2.0121
105,271,1-Octene,C8H16,111-66-0,112.021264,0.55449,0.25952,5669,0.28571,171.045,7.2155,566.090,2.1366
105,272,Octylmercaptan,C8H18S,111-88-6,146.029352,0.52577,0.27234,6673,0.363,223.095,6.0987,667.030,1.936
105,273,1-Octyne,C8H14,629-36647,110.019676,0.58945,0.2652,574,0.28532,193.055,7.4832,574.00,2.2626
105,274,Oxalicacid,C2H2O4,144-62-7,90.03488,1.1911,0.2738,828,0.28571,462.065,12.45,828.00,4.453
105,275,Oxygen,O2,7782-44-7,31.9988,3.9143,0.28772,15458,0.2924,54.35,40.77,154.058,13.650
105,276,Ozone,O3,10028-15-6,47.9982,3.3592,0.29884,261,0.28523,80.15,33.361,261.00,11.2410
105,277,Pentadecane,C15H32,629-62-9,212.041458,0.25142,0.23837,708,0.28571,283.07,3.6423,708.00,1.0547
105,278,Pentanal,C5H10O,110-62-3,86.1323,0.85658,0.26811,5661,0.27354,191.059,10.353,566.010,3.1949
105,279,Pentane,C5H12,109-66-0,72.14878,0.84947,0.26726,4697,0.27789,143.042,10.474,469.070,3.1784
105,280,Pentanoicacid,C5H10O2,109-52-4,102.0132,0.73455,0.25636,63916,0.25522,239.015,9.5869,639.016,2.8653
105,281,1-Pentanol,C5H12O,71-41-0,88.1482,0.81754,0.26732,5881,0.25348,195.056,10.061,588.010,3.0583
105,282,2-Pentanol,C5H12O,6032-29-7,88.1482,0.81577,0.26594,561,0.25551,200.00,10.017,561.00,3.0675
105,283,2-Pentanone,C5H10O,107-87-9,86.1323,0.9411,0.27207,5618,0.3669,196.029,10.398,561.08,3.3231
105,284,3-Pentanone,C5H10O,96-22-0,86.1323,0.71811,0.24129,56095,0.27996,234.018,10.12,560.095,2.9761
105,285,1-Pentene,C5H10,109-67-1,70.1329,0.89816,0.26608,4648,0.28571,108.02,11.521,464.080,3.3755
105,286,2-Pentylmercaptan,C5H12S,2084-19-7,104.021378,0.65858,0.25367,5843,0.28571,160.075,9.073,584.030,2.5962
105,287,Pentylmercaptan,C5H12S,110-66-7,104.021378,0.75345,0.2747,598,0.3583,197.045,8.8575,598.00,2.7857
105,288,1-Pentyne,C5H8,627-19-0,68.11702,0.8491,0.2352,4812,0.353,167.045,12.532,481.020,3.611
105,289,2-Pentyne,C5H8,627-21-4,68.11702,0.9299,0.25419,519,0.3177,163.083,12.24,519.00,3.6232
105,290,Phenanthrene,C14H10,85-43838,178.02292,0.45554,0.2523,869,0.24841,372.038,5.9853,869.00,1.855
105,291,Phenol,C6H6O,108-95-2,94.11124,1.3798,0.31598,69425,0.32768,314.06,11.244,694.025,4.3667
105,292,Phenylisocyanate,C7H5NO,103-71-9,119.01207,0.63163,0.23373,653,0.28571,243.015,9.6466,653.00,2.724
105,293,Phthalicanhydride,C8H4O3,85-44-9,148.011556,0.5393,0.22704,791,0.248,404.015,8.2218,791.00,2.3754
105,294,Propadiene,C3H4,463-49-0,40.06386,1.687,0.26543,394,0.29895,136.087,19.479,394.00,6.067
105,295,Propane,C3H8,74-98-6,44.09562,1.3757,0.27453,36983,0.29359,85.47,16.583,369.083,5.0111
105,296,1-Propanol,C3H8O,71-23-8,60.09502,1.2457,0.27281,5368,0.23994,146.095,15.26,536.080,4.5662
105,297,2-Propanol,C3H8O,67-63-0,60.095,1.1799,0.2644,5083,0.24653,185.026,14.663,508.030,4.4626
105,298,Propenylcyclohexene,C9H14,13511-13-2,122.020746,0.61255,0.26769,636,0.28571,199.00,7.4763,636.00,2.2883
105,299,Propionaldehyde,C3H6O,123-38-6,58.07914,1.2861,0.26236,5036,0.34,165.00,16.075,503.060,4.920
105,300,Propionicacid,C3H6O2,79-44078,74.0785,1.0969,0.25568,60081,0.26857,252.045,13.935,600.081,4.291
105,301,Propionitrile,C3H5N,107-36861,55.0785,0.91281,0.22125,5613,0.26811,180.037,16.067,561.030,4.1257
105,302,Propylacetate,C5H10O2,109-60-4,102.01317,0.7341,0.25456,54973,0.27666,178.015,9.7941,549.073,2.8693
105,303,Propylamine,C3H9N,107-44112,59.11026,0.9195,0.23878,49695,0.2461,188.036,13.764,496.095,3.858
105,304,Propylbenzene,C9H12,103-65-1,120.019158,0.57233,0.25171,63835,0.29616,173.055,7.9821,638.035,2.2738
105,305,Propylene,C3H6,115-44013,42.07974,1.443,0.26852,36485,0.28775,87.89,18.07,364.085,5.3638
105,306,Propylformate,C4H8O2,110-74-7,88.1512,0.915,0.26134,538,0.28,180.025,11.59,538.00,3.512
105,307,2-Propylmercaptan,C3H8S,75-33-2,76.16062,1.093,0.27762,517,0.29781,142.061,12.61,517.00,3.9370
105,308,Propylmercaptan,C3H8S,107-43899,76.16062,1.0714,0.27214,5366,0.29481,159.095,12.716,536.060,3.9369
105,309,"1,2-Propyleneglycol",C3H8O2,57-55-6,76.09442,1.0923,0.26106,626,0.2459,213.015,14.363,626.00,4.1841
105,310,Quinone,C6H4O2,106-51-4,108.09476,0.83228,0.25385,683,0.23658,388.085,10.082,683.00,3.2786
105,311,Silicontetrafluoride,F4Si,7783-61-1,104.07911,1.1945,0.24128,259,0.16693,186.035,15.635,259.00,4.957
105,312,Styrene,C8H8,100-42-5,104.014912,0.7397,0.26 6363,,0.39,242.054,9.188,636.00,2.8417
105,313,Succinicacid,C4H6O4,110-15-6,118.0884,0.65882,0.21 838741,,0.28571,460.085,10.21,838.00,3.033
105,314,Sulfurdioxide,O2S,7446-44079,64.0638,2.16,0.25 430.842 75,,0.2895,197.067,25.298,430.075,8.1495
105,315,Sulfurhexafluoride,F6S,2551-62-4,146.0554192,1.3587,0.27 3181 69,,0.2921,223.015,12.631,318.069,5.034
105,316,Sulfurtrioxide,O3S,7446-44144,80.0632,1.4969,0.19 49013 85,,0.4359,289.095,24.241,490.085,7.8730
105,317,Terephthalicacid,C8H6O4,100-21-0,166.013084,0.41922,0.17 883.775 6,,0.28571,700.015,7.12,883.060,2.3585
105,318,o-Terphenyl,C18H14,84-15-1,230.030376,0.3448,0.25 857116,,0.29268,329.035,4.5526,857.00,1.3728
100,318,o-Terphenyl,C18H14,84-15-1,230.030376,5.7136,?0.003474,,,288.015,4.7126,313.019,4.6256
105,319,Tetradecane,C14H30,629-59-4,198.0388,0.27248,0.24 6937,,0.28571,279.01,3.889,693.00,1.1350
105,320,Tetrahydrofuran,C4H8O,109-99-9,72.1572,1.2543,0.28 54084 15,,0.2912,164.065,13.998,540.015,4.4662
105,321,"1,2,3,4-Tetrahydronaphthalene",C10H12,119-64-2,132.020228,0.67717,0.27 720772,,0.2878,237.038,7.638,720.00,2.4383
105,322,Tetrahydrothiophene,C4H8S,110-36526,88.17132,1.1628,0.28954,63195,0.28674,176.099,12.48,631.095,4.0160
105,323,"2,2,3,3-Tetramethylbutane",C8H18,594-82-1,114.022852,0.58988,0.27201,568,0.27341,373.096,5.7242,568.00,2.1686
105,324,Thiophene,C4H4S,110-43862,84.13956,1.2874,0.28194,57935,0.3781,234.094,13.43,579.035,4.5662
105,325,Toluene,C7H8,108-88-3,92.13842,0.8792,0.27136,59175,0.29241,178.018,10.487,591.075,3.240
105,326,"1,1,2-Trichloroethane",C2H3Cl3,79-00-5,133.040422,0.962,0.25475,602,0.31,236.050,11.478,602.00,3.5572
105,327,Tridecane,C13H28,629-50-5,184.036142,0.29934,0.2433,675,0.28571,267.076,4.1817,675.00,1.233
105,328,Triethylamine,C6H15N,121-44-8,101.019,0.735,0.27386,53515,0.2872,158.045,8.2843,535.015,2.5688
105,329,Trimethylamine,C3H9N,75-50-3,59.11026,1.0116,0.25683,43325,0.2696,156.08,13.144,433.025,3.9388
105,330,"1,2,3-Trimethylbenzene",C9H12,526-73-8,120.019158,0.6531,0.272,6645,0.26268,243.015,7.7278,664.050,2.4187
105,331,"1,2,4-Trimethylbenzene",C9H12,95-63-6,120.019158,0.6394,0.25956,6491,0.27713,229.033,7.689,649.010,2.3268
105,332,"2,2,4-Trimethylpentane",C8H18,540-84-1,114.022852,0.5959,0.27424,5438,0.2847,165.078,6.9146,543.080,2.1536
105,333,"2,3,3-Trimethylpentane",C8H18,560-21-4,114.022852,0.628,0.27446,5735,0.2741,172.022,7.0934,573.050,2.1963
105,334,"1,3,5-Trinitrobenzene",C6H3N3O6,99-35-4,213.010452,0.48195,0.2393,846,0.28571,398.040,7.0825,846.00,2.0870
105,335,"2,4,6-Trinitrotoluene",C7H5N3O6,118-96-7,227.01311,0.37378,0.21379,828,0.29905,354.00,6.4521,828.00,1.7484
105,336,Undecane,C11H24,1120-21-4,156.030826,0.36703,0.24876,639,0.28571,247.057,4.9453,639.00,1.4754
105,337,1-Undecanol,C11H24O,112-42-5,172.030766,0.33113,0.23676,7039,0.2762,288.045,4.8594,703.090,1.3986
105,338,Vinylacetate,C4H6O2,108-43955,86.08924,0.9591,0.2593,51913,0.27448,180.035,12.287,519.013,3.6988
105,339,Vinylacetylene,C4H4,689-97-4,52.07456,1.273,0.2641,454,0.297,173.015,15.664,454.00,4.8781
105,340,Vinylchloride,C2H3Cl,75-43834,62.49822,1.5115,0.277,432,0.2716,119.036,18.481,432.00,5.5837
105,341,Vinyltrichlorosilane,C2H3Cl3Si,75-94-5,161.048972,0.59595,0.24314,54315 856,0.24856,178.035,8.8236,543.015,2.4511
100,342,Water,H2O,7732-18-5,18.01528,-13.851,0.6438,−0.0019124,0.018211,273.016,55.497,353.015,54.010
119,342,Water,H2O,7732-18-5,18.01528,17.874,35.618,19.655,-9.1306,16.0,55.487,647.096,17.8740
105,343,m-Xylene,C8H10,108-38-3,106.0165,0.68902,0.2686,617,0.27479,225.030,8.648,617.00,2.6413
105,344,o-Xylene,C8H10,95-47-6,106.0165,0.69962,0.26143,6303,0.27365,247.098,8.6229,630.030,2.6761