chemical_name,cas,smiles,canonical_smiles,log_p,log_s,kow,water-energy,pka
Tridecyl 2-methacrylate,2495-25-2,CCCCCCCCCCCCCOC(=O)C(C)=C,C=C(C)C(=O)OCCCCCCCCCCCCC,5.314,-4.979,7.607,-2.338,7.499
Hexadecyl methacrylate,2495-27-4,CCCCCCCCCCCCCCCCOC(=O)C(C)=C,C=C(C)C(=O)OCCCCCCCCCCCCCCCC,5.4129999999999985,-5.332000000000002,8.565,-2.06,7.645
Sodium 2-propenesulphonate,2495-39-8,[Na+].[O-][S](=O)(=O)CC=C,C=CCS(=O)(=O)[O-].[Na+],0.962,-0.456,0.182,-7.4479999999999995,4.902
"1-Butanol, 3-methoxy-",2517-43-3,COC(C)CCO,COC(C)CCO,-0.523,-0.63,-0.056,-5.655,12.855
Dimethyl chlorothiophosphate,2524-03-0,CO[P](Cl)(=S)OC,COP(=S)(Cl)OC,2.922,-1.436,1.05,-3.927,1.327
Diethyl chlorothiophosphate,4/1/2524,CCO[P](Cl)(=S)OCC,CCOP(=S)(Cl)OCC,4.248,-2.508,2.696,-4.105,5.405
Di-Butyl phenyl phosphate,2528-36-1,CCCCO[P](=O)(OCCCC)Oc1ccccc1,CCCCOP(=O)(OCCCC)Oc1ccccc1,4.801,-4.367,4.199,-6.11,4.994
"Silane, trimethoxy[3-(oxiranylmethoxy)propyl]-",2530-83-8,CO[Si](CCCOCC1CO1)(OC)OC,CO[Si](CCCOCC1CO1)(OC)OC,0.643,-1.964,-0.412,-6.928,8.076
3-(Trimethoxysilyl)propyl methacrylate,2530-85-0,CO[Si](CCCOC(=O)C(C)=C)(OC)OC,C=C(C)C(=O)OCCC[Si](OC)(OC)OC,1.319,-2.759,0.7929999999999999,-6.016,8.196
"Silane, (3-chloropropyl)trimethoxy-",2530-87-2,CO[Si](CCCCl)(OC)OC,CO[Si](CCCCl)(OC)OC,1.531,-2.095,0.389,-5.124,9.388
"2,2'-Diphenyl methane diisocyanate",5/2/2536,O=C=Nc1ccccc1Cc2ccccc2N=C=O,O=C=Nc1ccccc1Cc1ccccc1N=C=O,1.757,-3.545,3.609,-7.6370000000000005,2.074
Tetradecyl methacrylate,2549-53-3,CCCCCCCCCCCCCCOC(=O)C(C)=C,C=C(C)C(=O)OCCCCCCCCCCCCCC,5.352,-5.109,7.959,-2.237,7.55
"Silane, (3-chloropropyl)trichloro-",6/3/2550,ClCCC[Si](Cl)(Cl)Cl,ClCCC[Si](Cl)(Cl)Cl,4.27,-3.549,3.029,-2.126,14.071
Sulfur hexafluoride(SF6),2551-62-4,F[S](F)(F)(F)(F)F,FS(F)(F)(F)(F)F,5.63,-1.382,2.208,4.356,-3.092
"1,3-Cyclohexanedimethanamine",2579-20-6,NCC1CCCC(CN)C1,NCC1CCCC(CN)C1,-2.793,-2.385,-0.408,-4.938,10.928
"Phenol, 3-methyl-4-nitro-",2581-34-2,Cc1cc(O)ccc1[N+]([O-])=O,Cc1cc(O)ccc1[N+](=O)[O-],2.044,-2.333,2.201,-7.997000000000001,7.359
Aminoguanidinium hydrogen carbonate,2582-30-1,N[NH2+]C(N)=N.OC(O)=O,N=C(N)[NH2+]N.O=C(O)O,-7.862,1.1520000000000001,-3.729,-14.165,7.739
"3-Cyclohexene-1-carboxylic acid, 3-cyclohexen-1-ylmethyl ester",2611-00-9,O=C(OCC1CCC=CC1)C2CCC=CC2,O=C(OCC1CC=CCC1)C1CC=CCC1,3.842,-3.281,4.134,-3.113,6.703
"Disiloxane, 1,3-diethenyl-1,1,3,3-tetramethyl-",2627-95-4,C[Si](C)(O[Si](C)(C)C=C)C=C,C=C[Si](C)(C)O[Si](C)(C)C=C,0.215,-3.1719999999999997,4.598,-3.8489999999999998,5.545
"1,2-Benzisothiazol-3(2H)-one",2634-33-5,O=C1NSc2ccccc12,O=c1[nH]sc2ccccc12,1.2009999999999998,-2.545,1.582,-11.418,4.301
"Toluene-2,3-diamine",2687-25-4,Cc1cccc(N)c1N,Cc1cccc(N)c1N,-0.36,-1.5019999999999998,0.687,-9.685,5.723
"2-Pyrrolidinone, 1-octyl-",2687-94-7,CCCCCCCCN1CCCC1=O,CCCCCCCCN1CCCC1=O,3.38,-3.5010000000000003,2.939,-5.513,8.448
Dichlorofluoromethanesulphenyl chloride,2712-93-8,FC(Cl)(Cl)SCl,FC(Cl)(Cl)SCl,5.224,-2.858,2.995,-0.6459999999999999,10.44
Potassium O-pentyl-dithiocarbonate,2720-73-2,[K+].CCCCCOC([S-])=S,CCCCCOC(=S)[S-].[K+],4.0680000000000005,-3.3739999999999997,3.879,-1.507,5.802
"Ethanamine, 2,2'-oxybis-",2752-17-2,NCCOCCN,NCCOCCN,-4.053,-0.44799999999999995,-2.351,-9.331,9.258
Diquat,2764-72-9,[Br-].[Br-].C1C[n+]2ccccc2c3cccc[n+]13,[Br-].[Br-].c1cc[n+]2c(c1)-c1cccc[n+]1CC2,0.025,-2.895,-2.226,-6.2,9.036
"Silane, ethenyltrimethoxy-",2/7/2768,CO[Si](OC)(OC)C=C,C=C[Si](OC)(OC)OC,0.241,-1.446,-0.319,-6.436,6.049
"Phenol, 2,4-bis(1-methyl-1-phenylethyl)-",2772-45-4,CC(C)(c1ccccc1)c2ccc(O)c(c2)C(C)(C)c3ccccc3,CC(C)(c1ccccc1)c1ccc(O)c(C(C)(C)c2ccccc2)c1,4.558,-5.345,6.0539999999999985,-4.939,8.498
"Benzene, 1,3-bis(1-isocyanato-1-methylethyl)-",2778-42-9,CC(C)(N=C=O)c1cccc(c1)C(C)(C)N=C=O,CC(C)(N=C=O)c1cccc(C(C)(C)N=C=O)c1,1.311,-3.347,3.33,-6.539,1.364
"Phosphonic acid, [[bis(2-hydroxyethyl)amino]methyl]-, diethyl ester",11/5/2781,CCO[P](=O)(CN(CCO)CCO)OCC,CCOP(=O)(CN(CCO)CCO)OCC,0.7190000000000001,-1.048,-0.499,-11.167,4.045
"2-Naphthalenesulfonic acid, 6-hydroxy-5-[(4-sulfophenyl)azo]-, disodium salt",2783-94-0,[Na+].[Na+].[O-][S](=O)(=O)c1ccc(N\N=C2/C(=O)C=Cc3cc(ccc23)[S]([O-])(=O)=O)cc1,O=C1C=Cc2cc(S(=O)(=O)[O-])ccc2/C1=N/Nc1ccc(S(=O)(=O)[O-])cc1.[Na+].[Na+],1.975,-2.7910000000000004,2.286,-11.682,4.144
"2-Naphthalenecarboxamide, 4-[[4-(aminocarbonyl)phenyl]azo]-N-(2-ethoxyphenyl",2786-76-7,CCOc1ccccc1NC(=O)C2=Cc3ccccc3C(=N/Nc4ccc(cc4)C(N)=O)\C2=O,CCOc1ccccc1NC(=O)C1=Cc2ccccc2/C(=N\Nc2ccc(C(N)=O)cc2)C1=O,2.486,-3.957,2.984,-11.588,5.171
"Ethanol, 2-propoxy-",2807-30-9,CCCOCCO,CCCOCCO,0.239,-0.34700000000000003,0.259,-6.506,12.503
"Phosphonic acid, (1-hydroxyethylidene)bis-",2809-21-4,CC(O)([P](O)(O)=O)[P](O)(O)=O,CC(O)(P(=O)(O)O)P(=O)(O)O,2.17,1.123,-2.9410000000000003,-26.065,4.17
"4,7-Methano-1H-indene, octahydro-, (3aR,4S,7R,7aS)-rel-",2825-82-3,C1C[C@@H]2[C@H]3CC[C@H](C3)[C@@H]2C1,C1C[C@H]2[C@@H]3CC[C@@H](C3)[C@H]2C1,4.343,-4.16,3.506,-1.2229999999999999,6.183
"Benzeneacetic acid, alpha-amino-",6/5/2835,NC(C(O)=O)c1ccccc1,NC(C(=O)O)c1ccccc1,-1.127,-1.7409999999999999,-1.3230000000000002,-11.698,4.012
"Ethane, 2-chloro-1,1,1,2-tetrafluoro-",2837-89-0,FC(Cl)C(F)(F)F,FC(Cl)C(F)(F)F,4.229,-2.289,1.914,0.993,10.16
"Cyclohexylamine, 3-aminomethyl-3,5,5-trimethyl-",2855-13-2,CC1(C)CC(N)CC(C)(CN)C1,CC1(C)CC(N)CC(C)(CN)C1,-2.224,-2.342,0.7120000000000001,-4.961,10.042
2-(Dimethylamino)ethyl methacrylate,2867-47-2,CN(C)CCOC(=O)C(C)=C,C=C(C)C(=O)OCCN(C)C,-0.17600000000000002,-1.959,0.759,-6.832000000000001,8.418
"1,3,5-Triazine-2,4,6(1H,3H,5H)-trione, 1,3-dichloro, sodium",2893-78-9,[Na+].ClN1C(=O)[N-]C(=O)N(Cl)C1=O,O=c1[n-]c(=O)n(Cl)c(=O)n1Cl.[Na+],-1.6740000000000002,-1.1179999999999999,-0.101,-15.128,4.694
"Benzoyl chloride, 3,5-dichloro-",2905-62-6,ClC(=O)c1cc(Cl)cc(Cl)c1,O=C(Cl)c1cc(Cl)cc(Cl)c1,3.893,-4.043,3.708,-4.48,3.759
"O,O-Diethyl O-3,5,6-trichloro-2-pyridyl phosphorothioate",2921-88-2,CCO[P](=S)(OCC)Oc1nc(Cl)c(Cl)cc1Cl,CCOP(=S)(OCC)Oc1nc(Cl)c(Cl)cc1Cl,4.713,-5.127999999999999,4.871,-5.797999999999999,3.307
"Propanoic acid, 3-mercapto-, methyl ester",2935-90-2,COC(=O)CCS,COC(=O)CCS,0.6779999999999999,-0.687,0.904,-6.102,8.644
"Formic acid, chlorothio-, S-ethyl ester",2941-64-2,CCSC(Cl)=O,CCSC(=O)Cl,3.152,-1.123,1.973,-3.193,-2.438
"Silane, triethoxyoctyl-",2943-75-1,CCCCCCC(OCC)C([SiH3])(OCC)OCC,CCCCCCC(OCC)C([SiH3])(OCC)OCC,4.008,-3.699,4.597,-4.462,8.308
"1,4-Benzenedimethanol, .alpha.,.alpha.,.alpha.',.alpha.'-tetramethyl-",2948-46-1,CC(C)(O)c1ccc(cc1)C(C)(C)O,CC(C)(O)c1ccc(C(C)(C)O)cc1,1.632,-2.351,1.939,-8.41,3.626
"Ammonium 4,6-dinitro-o-tolyl oxide",2980-64-5,[NH4+].Cc1c(Oc2cc(cc(c2C)[N+]([O-])=O)[N+]([O-])=O)cc(cc1[N+]([O-])=O)[N+]([O-])=O,Cc1c(Oc2cc([N+](=O)[O-])cc([N+](=O)[O-])c2C)cc([N+](=O)[O-])cc1[N+](=O)[O-].[NH4+],2.569,-4.079,3.176,-6.715,3.377
"Silane, trimethoxyphenyl-",2996-92-1,CO[Si](OC)(OC)c1ccccc1,CO[Si](OC)(OC)c1ccccc1,1.849,-3.1460000000000004,1.404,-6.415,1.685
"2-Imidazolidinone, 4,5-dihydroxy-1,3-bis(methoxymethyl)-",3001-61-4,COCN1C(O)C(O)N(COC)C1=O,COCN1C(=O)N(COC)C(O)C1O,-0.552,0.015,-0.823,-15.842,6.216
"Peroxyhexanoic acid, 2-ethyl-, tert-butyl ester",3006-82-4,CCCCC(CC)C(=O)OOC(C)(C)C,CCCCC(CC)C(=O)OOC(C)(C)C,5.754,-3.46,4.937,-3.815,8.89
"diammonium hydrogen 2-hydroxypropane-1,2,3-tricarboxylate",3012-65-5,[NH4+].[NH4+].OC(=O)CC(O)(CC([O-])=O)C([O-])=O,O=C([O-])CC(O)(CC(=O)O)C(=O)[O-].[NH4+].[NH4+],-2.951,-0.799,-0.728,-10.902999999999999,5.38
"1,2-Ethanediamine, N-[2-(dimethylamino)ethyl]-N,N',N'-trimethyl-",3030-47-5,CN(C)CCN(C)CCN(C)C,CN(C)CCN(C)CCN(C)C,-2.777,-1.453,0.157,-8.004,9.177
"Ethanamine, 2,2'-oxybis[N,N-dimethyl-",3033-62-3,CN(C)CCOCCN(C)C,CN(C)CCOCCN(C)C,-2.55,-1.1,-0.208,-7.426,9.005
"Oxiranemethanaminium, N,N,N-trimethyl-, chloride",3033-77-0,[Cl-].C[N+](C)(C)CC1CO1,C[N+](C)(C)CC1CO1.[Cl-],-2.236,-1.732,-3.359,-4.643,8.786
Sodium ethenesulfonate,3039-83-6,[Na+].[O-][S](=O)(=O)C=C,C=CS(=O)(=O)[O-].[Na+],0.011,-0.469,-0.883,-7.5,4.256
"Aluminum, trioctadecyl-",3041-23-4,CCCCCCCCCCCCCCCCCC[Al](CCCCCCCCCCCCCCCCCC)CCCCCCCCCCCCCCCCCC,CCCCCCCCCCCCCCCCCC[Al](CCCCCCCCCCCCCCCCCC)CCCCCCCCCCCCCCCCCC,5.666,-6.557,11.871,-0.309,7.808
"Bicyclo[2.2.1]hept-2-ene, 5-ethenyl-",3048-64-4,C=CC1CC2CC1C=C2,C=CC1CC2C=CC1C2,4.24,-4.058,3.136,-0.053,4.984
"1H-Indene, 3a,4,7,7a-tetrahydro-",3048-65-5,C1C=CCC2C=CCC12,C1=CCC2CC=CC2C1,3.681,-3.055,4.192,0.036000000000000004,4.679
N-[3-(trimethoxysilyl)propyl]aniline,3068-76-6,CO[Si](CCCNc1ccccc1)(OC)OC,CO[Si](CCCNc1ccccc1)(OC)OC,1.6740000000000002,-3.405,1.445,-6.837999999999999,4.853
"1,4-Benzenediamine, N-(1,4-dimethylpentyl)-N'-phenyl-",1/4/3081,CC(C)CCC(C)Nc1ccc(Nc2ccccc2)cc1,CC(C)CCC(C)Nc1ccc(Nc2ccccc2)cc1,3.829,-4.926,6.186,-6.555,4.911
"1,4-Benzenediamine, N,N'-bis(1,4-dimethylpentyl)-",3081-14-9,CC(C)CCC(C)Nc1ccc(NC(C)CCC(C)C)cc1,CC(C)CCC(C)Nc1ccc(NC(C)CCC(C)C)cc1,3.923,-5.024,6.931,-4.628,8.452
Aluminum butoxide,3085-30-1,[Al+3].CCCC[O-].CCCC[O-].CCCC[O-],CCCC[O-].CCCC[O-].CCCC[O-].[Al+3],3.0780000000000003,-1.54,1.927,-1.689,12.194
"Ethanol, 2-[2-(dodecyloxy)ethoxy]-, hydrogen sulfate, sodium salt",3088-31-1,[Na+].CCCCCCCCCCCCOCCOCCO[S]([O-])(=O)=O,CCCCCCCCCCCCOCCOCCOS(=O)(=O)[O-].[Na+],3.896,-2.9389999999999996,4.71,-4.8260000000000005,7.918
"Melamine, hexakis(methoxymethyl)-",3089-11-0,COCN(COC)c1nc(nc(n1)N(COC)COC)N(COC)COC,COCN(COC)c1nc(N(COC)COC)nc(N(COC)COC)n1,2.878,-2.505,1.391,-10.185,2.558
"Stannane, trichlorooctyl-",3091-25-6,ClC(Cl)(Cl)CCCCCCC[SnH3],ClC(Cl)(Cl)CCCCCCC[SnH3],5.127999999999999,-4.505,5.468,-1.13,11.625
"Phenol, 3-methyl-4-(methylthio)-",3120-74-9,CSc1ccc(O)cc1C,CSc1ccc(O)cc1C,3.814,-2.8810000000000002,2.595,-6.812,9.262
2-methoxyethyl acrylate,3121-61-7,COCCOC(=O)C=C,C=CC(=O)OCCOC,0.598,-1.186,0.565,-5.968,13.084
"Phenol, 2-(2H-benzotriazol-2-yl)-4-(1,1,3,3-tetramethylbutyl)-",3147-75-9,CC(C)(C)CC(C)(C)c1ccc(O)c(c1)n2nc3ccccc3n2,CC(C)(C)CC(C)(C)c1ccc(O)c(-n2nc3ccccc3n2)c1,4.052,-4.7780000000000005,5.586,-7.6370000000000005,6.559
"Octadecanoic acid, 12-hydroxy-, calcium salt (2:1)",3159-62-4,[Ca++].CCCCCCC(O)CCCCCCCCCCC([O-])=O.CCCCCCC(O)CCCCCCCCCCC([O-])=O,CCCCCCC(O)CCCCCCCCCCC(=O)[O-].CCCCCCC(O)CCCCCCCCCCC(=O)[O-].[Ca+2],4.096,-4.176,6.438,-3.803,7.393
"Hexanoic acid, 2-ethyl-, potassium salt",3164-85-0,[K+].CCCCC(CC)C([O-])=O,CCCCC(CC)C(=O)[O-].[K+],3.414,-2.842,3.132,-2.77,8.601
"Cyclohexane, isocyanato-",3173-53-3,O=C=NC1CCCCC1,O=C=NC1CCCCC1,1.902,-1.8519999999999999,2.351,-4.747,4.814
"Naphthalene, 1,5-diisocyanato-",3173-72-6,O=C=Nc1cccc2c(cccc12)N=C=O,O=C=Nc1cccc2c(N=C=O)cccc12,0.812,-3.2969999999999997,2.974,-8.905,0.911
"Cyclododecane, 1,2,5,6,9,10-hexabromo-",3194-55-6,BrC1CCC(Br)C(Br)CCC(Br)C(Br)CCC1Br,BrC1CCC(Br)C(Br)CCC(Br)C(Br)CCC1Br,5.292000000000002,-4.249,3.548,-1.9669999999999999,7.698
"Benzene, 1,2-dichloro-3-nitro-",3209-22-1,[O-][N+](=O)c1cccc(Cl)c1Cl,O=[N+]([O-])c1cccc(Cl)c1Cl,3.834,-3.5260000000000002,2.839,-4.225,4.483
"Propanal, 3-(methylthio)-",3268-49-3,CSCCC=O,CSCCC=O,1.19,-0.784,0.667,-5.254,9.196
"Diethylene, 1,1'-[Methylenebis(sulphonyl)]-",3278-22-6,C=C[S](=O)(=O)C[S](=O)(=O)C=C,C=CS(=O)(=O)CS(=O)(=O)C=C,-1.125,-0.45399999999999996,-1.643,-10.470999999999998,4.973
"Propanoyl chloride, 2,2-dimethyl-",3282-30-2,CC(C)(C)C(Cl)=O,CC(C)(C)C(=O)Cl,2.459,-1.466,1.918,-3.2510000000000003,9.524
"2-Propenoic acid, 2-methyl-, 2-ethyl-2-[[(2-methyl-1-oxo-2-propenyl)oxy]methyl]-1,3-propanediyl ester",3290-92-4,CCC(COC(=O)C(C)=C)(COC(=O)C(C)=C)COC(=O)C(C)=C,C=C(C)C(=O)OCC(CC)(COC(=O)C(=C)C)COC(=O)C(=C)C,4.039,-4.189,3.818,-6.501,6.384
"1,3-Propanediol, 2,2-bis(bromomethyl)-",3296-90-0,OCC(CO)(CBr)CBr,OCC(CO)(CBr)CBr,1.983,-1.5619999999999998,0.726,-10.821,13.647
"Hexanoic acid, 3,5,5-trimethyl-",10/1/3302,CC(CC(O)=O)CC(C)(C)C,CC(CC(=O)O)CC(C)(C)C,0.268,-2.287,2.376,-3.4330000000000003,5.725
"1,2,4-Benzenetricarboxylic acid, tris(2-ethylhexyl) ester",3319-31-1,CCCCC(CC)COC(=O)c1ccc(C(=O)OCC(CC)CCCC)c(c1)C(=O)OCC(CC)CCCC,CCCCC(CC)COC(=O)c1ccc(C(=O)OCC(CC)CCCC)c(C(=O)OCC(CC)CCCC)c1,5.441,-6.022,8.253,-3.71,4.925
"Adipic acid, compound with hexane-1,6-diamine (1:1)",3323-53-3,NCCCCCCN.OC(=O)CCCCC(O)=O,NCCCCCCN.O=C(O)CCCCC(=O)O,-3.017,-1.193,-2.122,-8.411,9.147
"1-Propanaminium, 3-chloro-2-hydroxy-N,N,N-trimethyl-, chloride",3327-22-8,[Cl-].C[N+](C)(C)CC(O)CCl,C[N+](C)(C)CC(O)CCl.[Cl-],-2.301,-1.2830000000000001,-2.5340000000000003,-6.183,10.625
"1-Tetradecanamine, N,N-dimethyl-, N-oxide",3332-27-2,CCCCCCCCCCCCCC[N+](C)(C)[O-],CCCCCCCCCCCCCC[N+](C)(C)[O-],1.781,-4.667,3.345,-1.69,5.852
Nickel carbonate,3333-67-3,[Ni++].[O-]C([O-])=O,O=C([O-])[O-].[Ni+2],-1.6130000000000002,-0.35600000000000004,0.443,-4.132,17.166
Ethyl sodium phosphorodithioate,3338-24-7,CC[Na].O[P](O)(S)=S,CC[Na].OP(O)(=S)S,1.822,0.27899999999999997,1.4580000000000002,-10.146,1.671
"Phenol, 5-chloro-2-(2,4-dichlorophenoxy)-",3380-34-5,Oc1cc(Cl)ccc1Oc2ccc(Cl)cc2Cl,Oc1cc(Cl)ccc1Oc1ccc(Cl)cc1Cl,4.122,-5.2620000000000005,4.796,-5.779,8.121
"Octadecane, 1-chloro-",3386-33-2,CCCCCCCCCCCCCCCCCCCl,CCCCCCCCCCCCCCCCCCCl,5.641,-5.7360000000000015,9.314,-0.063,8.532
"1,4-Cyclohexanedicarboxylic acid, dimethyl ester, trans-",3399-22-2,COC(=O)[C@@H]1CC[C@H](CC1)C(=O)OC,COC(=O)[C@H]1CC[C@H](C(=O)OC)CC1,3.116,-1.7830000000000001,0.8059999999999999,-5.821000000000001,6.863
"Hydroperoxide, 1,1-dimethylpropyl-",3425-61-4,CCC(C)(C)OO,CCC(C)(C)OO,0.88,-0.941,1.28,-6.153,12.283
5-Chloro-o-anisic acid,3438-16-2,COc1ccc(Cl)cc1C(O)=O,COc1ccc(Cl)cc1C(=O)O,-0.755,-2.978,2.3,-7.846,3.924
1-Eicosene,7/1/3452,CCCCCCCCCCCCCCCCCCC=C,C=CCCCCCCCCCCCCCCCCCC,5.452000000000001,-5.807,9.854,0.364,7.227
"1-Hexanol, 3,5,5-trimethyl-",3452-97-9,CC(CCO)CC(C)(C)C,CC(CCO)CC(C)(C)C,3.227,-2.515,3.094,-1.6019999999999999,11.615
[2-Hydroxy-3-(naphthyloxy)propyl]isopropylammonium chloride,3506-09-0,[Cl-].CC(C)[NH2+]CC(O)COc1cccc2ccccc12,CC(C)[NH2+]CC(O)COc1cccc2ccccc12.[Cl-],0.037000000000000005,-3.85,1.614,-6.263,6.124
"4,4'-[(3,3'-dichloro[1,1'-biphenyl]-4,4'-diyl)bis(azo)]bis[2,4-dihydro-5-methyl-2-phenyl-3H-pyrazol-3-one]",3520-72-7,CC1=NN(c2ccccc2)C(=O)C1N=Nc3ccc(cc3Cl)c4ccc(N=NC5C(=NN(c6ccccc6)C5=O)C)c(Cl)c4,CC1=NN(c2ccccc2)C(=O)C1N=Nc1ccc(-c2ccc(N=NC3C(=O)N(c4ccccc4)N=C3C)c(Cl)c2)cc1Cl,2.718,-4.3210000000000015,5.607,-10.061,1.797
"Ethanol, 2-(octylthio)-",3547-33-9,CCCCCCCCSCCO,CCCCCCCCSCCO,4.135,-3.1630000000000003,3.835,-3.7769999999999997,9.551
"Benzene, 1-methyl-3-phenoxy-",3586-14-9,Cc1cccc(Oc2ccccc2)c1,Cc1cccc(Oc2ccccc2)c1,4.0680000000000005,-4.533,4.457,-3.502,4.18
"Stannane, tetraoctyl-",3590-84-9,CCCCCCCC[Sn](CCCCCCCC)(CCCCCCCC)CCCCCCCC,CCCCCCCC[Sn](CCCCCCCC)(CCCCCCCC)CCCCCCCC,5.563,-6.15,10.409,-0.29,7.039
"Acetamide, N-[5-[bis[2-(acetyloxy)ethyl]amino]-2-[(2-bromo-4,6-dinitrophenyl)azo]-4-methoxyphenyl]-",3618-72-2,COc1cc(N=Nc2c(Br)cc(cc2[N+]([O-])=O)[N+]([O-])=O)c(NC(C)=O)cc1N(CCOC(C)=O)CCOC(C)=O,COc1cc(N=Nc2c(Br)cc([N+](=O)[O-])cc2[N+](=O)[O-])c(NC(C)=O)cc1N(CCOC(C)=O)CCOC(C)=O,1.916,-4.1610000000000005,3.608,-9.33,6.044
"Benzenesulfonamide, N-butyl-",3622-84-2,CCCCN[S](=O)(=O)c1ccccc1,CCCCNS(=O)(=O)c1ccccc1,2.596,-2.574,2.149,-10.466,10.9
"1,3-bis(isocyanatomethyl)benzene",3634-83-1,O=C=NCc1cccc(CN=C=O)c1,O=C=NCc1cccc(CN=C=O)c1,-0.37,-2.113,2.184,-8.466000000000001,1.409
Di-undecyl phthalate,3648-20-2,CCCCCCCCCCCOC(=O)c1ccccc1C(=O)OCCCCCCCCCCC,CCCCCCCCCCCOC(=O)c1ccccc1C(=O)OCCCCCCCCCCC,5.294,-6.1960000000000015,9.11,-3.275,6.505
Di-n-Heptyl phthalate,3648-21-3,CCCCCCCOC(=O)c1ccccc1C(=O)OCCCCCCC,CCCCCCCOC(=O)c1ccccc1C(=O)OCCCCCCC,5.092,-5.71,7.257999999999999,-4.15,5.651
"9-Octadecenoic acid (9Z)-, decyl ester",3687-46-5,CCCCCCCCCCOC(=O)CCCCCCC\C=C/CCCCCCCC,CCCCCCCC/C=C\CCCCCCCC(=O)OCCCCCCCCCC,5.5139999999999985,-5.4270000000000005,8.965,-1.679,6.453
potassium diethyldithiocarbamate,3699-30-7,[K+].CCN(CC)C([S-])=S,CCN(CC)C(=S)[S-].[K+],1.043,-2.4290000000000003,2.544,-4.607,6.523
"2-Imidazolidinone, 1-(2-hydroxyethyl)-",3699-54-5,OCCN1CCNC1=O,O=C1NCCN1CCO,-0.6890000000000001,-0.299,-1.32,-13.777000000000001,9.339
"Disodium 4,4'-dinitrostilbene-2,2'-disulphonate",3709-43-1,[Na+].[Na+].[O-][N+](=O)c1ccc(C=Cc2ccc(cc2[S]([O-])(=O)=O)[N+]([O-])=O)c(c1)[S]([O-])(=O)=O,O=[N+]([O-])c1ccc(C=Cc2ccc([N+](=O)[O-])cc2S(=O)(=O)[O-])c(S(=O)(=O)[O-])c1.[Na+].[Na+],1.901,-3.252,2.773,-9.139,4.662
"Ethanamine, N-ethyl-N-hydroxy-",3710-84-7,CCN(O)CC,CCN(O)CC,-2.637,-0.156,-0.149,-8.726,6.215
2-Butenoic acid,3724-65-0,CC=CC(O)=O,CC=CC(=O)O,-2.92,-0.28600000000000003,0.908,-8.517000000000001,4.848
"2-Benzothiazolesulfenamide, N-(2-benzothiazolylthio)-N-(1,1-dimethylethyl)-",3741-80-8,CC(C)(C)N(Sc1sc2ccccc2n1)Sc3sc4ccccc4n3,CC(C)(C)N(Sc1nc2ccccc2s1)Sc1nc2ccccc2s1,4.2780000000000005,-6.072,5.318,-6.622999999999999,4.354
"Benzene, 1,3-bis(1-methylethenyl)-",3748-13-8,CC(=C)c1cccc(c1)C(C)=C,C=C(C)c1cccc(C(=C)C)c1,3.499,-4.175,4.562,-2.985,7.05
"Phenol, 2,4-dichloro-, sodium salt",3757-76-4,[Na+].[O-]c1ccc(Cl)cc1Cl,[Na+].[O-]c1ccc(Cl)cc1Cl,3.32,-3.5660000000000003,3.084,-3.403,5.372
"1,3,5-Triazine-2,4,6-(1H,3H,5H)-trione, 1,3,5-tris(6-isocyanatohexyl)-",3779-63-3,O=C=NCCCCCCN1C(=O)N(CCCCCCN=C=O)C(=O)N(CCCCCCN=C=O)C1=O,O=C=NCCCCCCn1c(=O)n(CCCCCCN=C=O)c(=O)n(CCCCCCN=C=O)c1=O,2.416,-3.315,3.279,-10.720999999999998,5.974
"2,4,8,10-Tetraoxa-3,9-diphosphaspiro[5.5]undecane, 3,9-bis(octadecyloxy)-",3806-34-6,CCCCCCCCCCCCCCCCCCOP1OCC2(CO1)COP(OCCCCCCCCCCCCCCCCCC)OC2,CCCCCCCCCCCCCCCCCCOP1OCC2(CO1)COP(OCCCCCCCCCCCCCCCCCC)OC2,4.739,-4.529,7.115,-4.217,6.35
Potassium chlorate,4/9/3811,[K+].[O-][Cl](=O)=O,[K+].[O-][Cl+2]([O-])[O-],0.5539999999999999,-0.7959999999999999,0.913,-7.537000000000001,13.944
"2-Pyridinethiol, 1-oxide, sodium salt",3811-73-2,[Na+].[O-]N1C=CC=CC1=S,[Na+].[O-]n1ccccc1=S,0.246,-1.834,1.187,-7.787000000000001,6.489
FD & C Blue No.1,3844-45-9,[Na+].[Na+].CCN(Cc1cccc(c1)[S]([O-])(=O)=O)c2ccc(cc2)[C+](c3ccc(cc3)N(CC)Cc4cccc(c4)[S]([O-])(=O)=O)c5ccccc5[S]([O-])(=O)=O,CCN(Cc1cccc(S(=O)(=O)[O-])c1)c1ccc([C+](c2ccc(N(CC)Cc3cccc(S(=O)(=O)[O-])c3)cc2)c2ccccc2S(=O)(=O)[O-])cc1.[Na+].[Na+],3.711,-4.916,3.937,-8.77,5.267
N-(3-(Dimethylamino)propyl) acrylamide,3845-76-9,CN(C)CCCNC(=O)C=C,C=CC(=O)NCCCN(C)C,-1.821,-1.493,-0.612,-9.692,8.616
methyl 3-methoxypropionate,9/3/3852,COCCC(=O)OC,COCCC(=O)OC,0.738,-0.551,-0.217,-5.1,7.826
bumetrizole,11/5/3896,Cc1cc(n2nc3ccc(Cl)cc3n2)c(O)c(c1)C(C)(C)C,Cc1cc(-n2nc3ccc(Cl)cc3n2)c(O)c(C(C)(C)C)c1,4.252,-4.575,4.982,-8.595,6.203
Sodium chloroacetate,3926-62-3,[Na+].[O-]C(=O)CCl,O=C([O-])CCl.[Na+],-0.489,-0.46399999999999997,0.705,-5.566,2.219
"Isophthalic acid, 5-sulfo-1,3-dimethyl ester, sodium salt",3965-55-7,[Na+].COC(=O)c1cc(cc(c1)[S]([O-])(=O)=O)C(=O)OC,COC(=O)c1cc(C(=O)OC)cc(S(=O)(=O)[O-])c1.[Na+],1.5830000000000002,-2.634,2.0,-8.95,1.107
Thiophosphoryl chloride,3982-91-0,Cl[P](Cl)(Cl)=S,S=P(Cl)(Cl)Cl,3.549,-2.764,2.482,-1.834,1.93
"1-Octadecanol, aluminum salt",3985-81-7,[Al+3].CCCCCCCCCCCCCCCCCC[O-].CCCCCCCCCCCCCCCCCC[O-].CCCCCCCCCCCCCCCCCC[O-],CCCCCCCCCCCCCCCCCC[O-].CCCCCCCCCCCCCCCCCC[O-].CCCCCCCCCCCCCCCCCC[O-].[Al+3],5.226,-5.492999999999999,8.805,-0.622,10.025
"2-Butenedioic acid (2Z)-, monoethyl ester",3/2/3990,CCOC(=O)\C=C/C(O)=O,CCOC(=O)/C=C\C(=O)O,-1.638,-0.9159999999999999,1.166,-9.77,4.103
"Hexadecanoic acid, 2-sulfo, 1-methyl ester, sodium salt",4016-24-4,[Na+].CCCCCCCCCCCCCCC(C(=O)OCC)[S]([O-])(=O)=O,CCCCCCCCCCCCCCC(C(=O)OCC)S(=O)(=O)[O-].[Na+],4.107,-4.338,6.251,-4.593,7.056
"Imidodicarbonic diamide, N,N',2-tris(6-isocyanatohexyl)-",4035-89-6,O=C=NCCCCCCNC(=O)N(CCCCCCN=C=O)C(=O)NCCCCCCN=C=O,O=C=NCCCCCCNC(=O)N(CCCCCCN=C=O)C(=O)NCCCCCCN=C=O,2.258,-3.4219999999999997,3.537,-9.699,5.754
Calcium dipropionate,4075-81-4,[Ca++].CCC([O-])=O.CCC([O-])=O,CCC(=O)[O-].CCC(=O)[O-].[Ca+2],-0.53,-0.503,0.78,-4.162,8.433
"Benzenesulfonyl isocyanate, 4-methyl-",4083-64-1,Cc1ccc(cc1)[S](=O)(=O)N=C=O,Cc1ccc(S(=O)(=O)N=C=O)cc1,-0.411,-2.168,2.075,-9.511000000000001,1.703
"Dioctadecylamine, N-methyl-",4088-22-6,CCCCCCCCCCCCCCCCCCN(C)CCCCCCCCCCCCCCCCCC,CCCCCCCCCCCCCCCCCCN(C)CCCCCCCCCCCCCCCCCC,4.762,-6.101,10.311,-1.05,9.877