chemical_name,cas,smiles,canonical_smiles,log_p,log_s,kow,water-energy,pka
"Stannane, tetrabutyl-",1461-25-2,CCCC[Sn](CCCC)(CCCC)CCCC,CCCC[Sn](CCCC)(CCCC)CCCC,5.68,-5.4570000000000025,7.441,-0.28300000000000003,6.437
m-Phenylene-bis(methylamine),1477-55-0,CNc1cccc(NC)c1,CNc1cccc(NC)c1,-0.217,-1.8159999999999998,0.985,-8.939,7.051
DL-menthol,1490-04-6,CC(C)C1CCC(C)CC1O,CC1CCC(C(C)C)C(O)C1,2.8360000000000003,-2.748,3.597,-2.589,8.482
"Phosphorodichloridic acid, ethyl ester",1498-51-7,CCO[P](Cl)(Cl)=O,CCOP(=O)(Cl)Cl,3.551,-1.021,1.171,-4.269,13.724
"Ethanone, 1-(5,6,7,8-tetrahydro-3,5,5,6,8,8-hexamethyl-2-naphthalenyl)-",1506-02-1,CC1CC(C)(C)c2cc(C(C)=O)c(C)cc2C1(C)C,CC(=O)c1cc2c(cc1C)C(C)(C)C(C)CC2(C)C,4.753,-4.992,5.64,-3.305,6.855
"Aluminum, trieicosyl-",1529-57-3,CCCCCCCCCCCCCCCCCCCCCCC[AlH2],CCCCCCCCCCCCCCCCCCCCCCC[AlH2],5.122999999999998,-6.022,10.218,-0.36,8.305
"Aluminium, tritetradecyl-",1529-58-4,CCCCCCCCCCCCCC[Al](CCCCCCCCCCCCCC)CCCCCCCCCCCCCC,CCCCCCCCCCCCCC[Al](CCCCCCCCCCCCCC)CCCCCCCCCCCCCC,5.617000000000001,-6.376,11.328,-0.34299999999999997,7.631
"Aluminium, tridodecyl-",1529-59-5,CCCCCCCCCCCC[Al](CCCCCCCCCCCC)CCCCCCCCCCCC,CCCCCCCCCCCC[Al](CCCCCCCCCCCC)CCCCCCCCCCCC,5.581,-6.239,10.923,-0.369,7.499
"(Z,Z)-Cycloocta-1,5-diene",1552-12-1,C\1C\C=C/CC\C=C1,C1=C\CC/C=C\CC/1,3.482,-1.84,3.5810000000000004,-0.8590000000000001,1.468
"1(3H)-Isobenzofuranone, 6-(dimethylamino)-3,3-bis[4-(dimethylamino)phenyl]-",1552-42-7,CN(C)c1ccc(cc1)C2(OC(=O)c3cc(ccc23)N(C)C)c4ccc(cc4)N(C)C,CN(C)c1ccc(C2(c3ccc(N(C)C)cc3)OC(=O)c3cc(N(C)C)ccc32)cc1,3.679,-4.599,4.636,-8.755,6.041
"1-Hexadecanol, 3,6,9,12-tetraoxa-",1559-34-8,CCCCOCCOCCOCCOCCO,CCCCOCCOCCOCCOCCO,1.554,-1.284,-0.012,-7.0760000000000005,14.007
"Ethanol, 2-[(2-ethylhexyl)oxy]-",1559-35-9,CCCCC(CC)COCCO,CCCCC(CC)COCCO,2.9360000000000004,-2.2569999999999997,2.819,-3.969,10.12
"Propanoic acid, cobalt(2+) salt",1560-69-6,[Co++].CCC([O-])=O.CCC([O-])=O,CCC(=O)[O-].CCC(=O)[O-].[Co+2],-0.534,-0.522,0.73,-4.105,9.7
Sodium 2-propene-2-methyl-1-sulfonate,1561-92-8,[Na+].CC(=C)C[S]([O-])(=O)=O,C=C(C)CS(=O)(=O)[O-].[Na+],0.6779999999999999,-0.7859999999999999,1.095,-6.9270000000000005,6.359
Sodium 2-hydroxyethanesulfonate,1562-00-1,[Na+].OCC[S]([O-])(=O)=O,O=S(=O)([O-])CCO.[Na+],-0.07400000000000001,0.11900000000000001,-1.137,-9.776,7.669
"7-Benzofuranol, 2,3-dihydro-2,2-dimethyl",1563-38-8,CC1(C)Cc2cccc(O)c2O1,CC1(C)Cc2cccc(O)c2O1,3.748,-3.264,2.734,-6.706,8.155
"7-Benzofuranol, 2,3-dihydro-2,2-dimethyl, methylcarbamate",1563-66-2,CNC(=O)Oc1cccc2CC(C)(C)Oc12,CNC(=O)Oc1cccc2c1OC(C)(C)C2,3.635,-3.48,2.319,-7.359,3.43
"2-Propanol, 1-propoxy-",1569-01-3,CCCOCC(C)O,CCCOCC(C)O,0.383,-0.5870000000000001,0.752,-6.496,12.572
"2-Propanol, 1-ethoxy-",1569-02-4,CCOCC(C)O,CCOCC(C)O,-0.248,-0.162,0.205,-6.992000000000001,14.576
Cyclohexanethiol,1569-69-3,SC1CCCCC1,SC1CCCCC1,2.417,-2.548,2.748,-2.617,10.005
"Phenol, 4-chloro-2-methyl-",1570-64-5,Cc1cc(Cl)ccc1O,Cc1cc(Cl)ccc1O,3.539,-2.8169999999999997,2.9730000000000003,-5.767,9.152
"Terephthalaldehydic acid, methyl ester",1571-08-0,COC(=O)c1ccc(C=O)cc1,COC(=O)c1ccc(C=O)cc1,2.042,-2.497,1.869,-7.431,0.688
Trifluralin,1582-09-8,CCCN(CCC)c1c(cc(cc1[N+]([O-])=O)C(F)(F)F)[N+]([O-])=O,CCCN(CCC)c1c([N+](=O)[O-])cc(C(F)(F)F)cc1[N+](=O)[O-],3.825,-5.138,5.142,-4.1819999999999995,4.127
"1-Propanol, 2-methoxy-",1589-47-5,COC(C)CO,COC(C)CO,-1.055,-0.191,-0.385,-6.937,14.784
Calcium distearate,1592-23-0,[Ca++].CCCCCCCCCCCCCCCCCC([O-])=O.CCCCCCCCCCCCCCCCCC([O-])=O,CCCCCCCCCCCCCCCCCC(=O)[O-].CCCCCCCCCCCCCCCCCC(=O)[O-].[Ca+2],5.097,-5.013,8.595,-1.6369999999999998,8.452
1-Docosene,1599-67-3,CCCCCCCCCCCCCCCCCCCCC=C,C=CCCCCCCCCCCCCCCCCCCCC,5.4860000000000015,-5.952000000000001,10.223,0.314,7.338
Strontium carbonate,1633-05-2,[Sr++].[O-]C([O-])=O,O=C([O-])[O-].[Sr+2],-1.564,-0.33,0.5489999999999999,-4.373,14.176
Methyl t-butyl ether,1634-04-4,COC(C)(C)C,COC(C)(C)C,2.5860000000000003,-1.219,1.098,-1.587,11.68
"1-Dodecanamine, N,N-dimethyl-, N-oxide",1643-20-5,CCCCCCCCCCCC[N+](C)(C)[O-],CCCCCCCCCCCC[N+](C)(C)[O-],1.263,-4.314,2.44,-1.8719999999999999,5.527
"Propanal, 2-methyl-2-(methylthio)-, oxime",1646-75-9,CSC(C)(C)C=NO,CSC(C)(C)C=NO,0.041,-1.6969999999999998,1.275,-6.709,9.57
"1,3-Butadiene, 2,3-dichloro-",1653-19-6,ClC(=C)C(Cl)=C,C=C(Cl)C(=C)Cl,3.428,-2.6210000000000004,2.102,-1.5330000000000001,13.094
"Disodium 1,5-naphthalenesulfonate",1655-29-4,[Na+].[Na+].[O-][S](=O)(=O)c1cccc2c1cccc2[S]([O-])(=O)=O,O=S(=O)([O-])c1cccc2c(S(=O)(=O)[O-])cccc12.[Na+].[Na+],1.61,-2.7969999999999997,1.4880000000000002,-9.212,4.4
tert-Butyl acrylate,1663-39-4,CC(C)(C)OC(=O)C=C,C=CC(=O)OC(C)(C)C,3.667,-2.303,2.1180000000000003,-3.741,8.671
"Bisphenol A, diglycidyl ether",1675-54-3,CC(C)(c1ccc(OCC2CO2)cc1)c3ccc(OCC4CO4)cc3,CC(C)(c1ccc(OCC2CO2)cc1)c1ccc(OCC2CO2)cc1,4.1080000000000005,-4.965,5.654,-6.794,6.624
"2,6-dibromo-4-cyanophenyl octanoate",1689-99-2,CCCCCCCC(=O)Oc1c(Br)cc(cc1Br)C#N,CCCCCCCC(=O)Oc1c(Br)cc(C#N)cc1Br,4.274,-5.4860000000000015,5.674,-4.877,10.41
"2H-Pyridazinone, 4,5-dichloro-2-phenyl-",1698-53-9,ClC1=C(Cl)C(=O)N(N=C1)c2ccccc2,O=c1c(Cl)c(Cl)cnn1-c1ccccc1,2.018,-3.128,2.332,-10.465,0.776
Chloridazon,1698-60-8,NC1=C(Cl)C(=O)N(N=C1)c2ccccc2,Nc1cnn(-c2ccccc2)c(=O)c1Cl,0.895,-2.427,1.182,-12.784,0.525
"2-Pyridinecarboxylic acid, 3,6-dichloro-",1702-17-6,OC(=O)c1nc(Cl)ccc1Cl,O=C(O)c1nc(Cl)ccc1Cl,-0.253,-2.495,1.528,-8.896,2.697
"Ethanol, 2-[2-(dimethylamino)ethoxy]-",1704-62-7,CN(C)CCOCCO,CN(C)CCOCCO,-2.106,-0.396,-0.987,-8.568,9.342
"Phenol, 4,4',4''-[(2,4,6-trimethyl-1,3,5-benzenetriyl)tris(methylene)]tris[2,6-bis(1,1-dimethylethyl)-",1709-70-2,Cc1c(Cc2cc(c(O)c(c2)C(C)(C)C)C(C)(C)C)c(C)c(Cc3cc(c(O)c(c3)C(C)(C)C)C(C)(C)C)c(C)c1Cc4cc(c(O)c(c4)C(C)(C)C)C(C)(C)C,Cc1c(Cc2cc(C(C)(C)C)c(O)c(C(C)(C)C)c2)c(C)c(Cc2cc(C(C)(C)C)c(O)c(C(C)(C)C)c2)c(C)c1Cc1cc(C(C)(C)C)c(O)c(C(C)(C)C)c1,5.652,-6.329,6.854,-4.499,9.42
"Ethane, 1,1-dichloro-1-fluoro-",1717-00-6,CC(F)(Cl)Cl,CC(F)(Cl)Cl,4.949,-1.942,1.992,-0.038,17.548
"Silane, chloroethenyldimethyl-",1719-58-0,C[SiH](C)C=CCl,C[SiH](C)C=CCl,0.921,-2.086,3.051,-0.851,4.717
Cyclododecanol,1724-39-6,OC1CCCCCCCCCCC1,OC1CCCCCCCCCCC1,3.233,-2.088,2.592,-2.73,7.982
"Aluminum, trihexadecyl-",1726-65-4,CCCCCCCCCCCCCCCC[Al](CCCCCCCCCCCCCCCC)CCCCCCCCCCCCCCCC,CCCCCCCCCCCCCCCC[Al](CCCCCCCCCCCCCCCC)CCCCCCCCCCCCCCCC,5.644,-6.478,11.633,-0.324,7.73
"Aluminium, tris(decyl)-",1726-66-5,CCCCCCCCCC[Al](CCCCCCCCCC)CCCCCCCCCC,CCCCCCCCCC[Al](CCCCCCCCCC)CCCCCCCCCC,5.5310000000000015,-6.0429999999999975,10.36,-0.40399999999999997,7.331
"Pyridine, 3,5-dichloro-2,4,6-trifluoro-",1737-93-5,Fc1nc(F)c(Cl)c(F)c1Cl,Fc1nc(F)c(Cl)c(F)c1Cl,3.403,-3.886,2.915,-3.398,1.085
"Propionitrile, 3-(dimethylamino)-",1738-25-6,CN(C)CCC#N,CN(C)CCC#N,-2.532,-0.6629999999999999,-0.579,-7.394,7.143
"Benzene, 1,1'-ethylidenebis[3,4-dimethyl-",1742-14-9,CC(c1ccc(C)c(C)c1)c2ccc(C)c(C)c2,Cc1ccc(C(C)c2ccc(C)c(C)c2)cc1C,4.715,-5.053999999999999,6.9910000000000005,-3.301,5.098
"Methanesulfinic acid, aminoimino-",1758-73-2,NN=C[S](O)=O,NN=CS(=O)O,-0.593,0.741,-3.0,-14.235999999999999,5.897
"1,2-Ethanediamine, N-[3-(trimethoxysilyl)propyl]-",1760-24-3,CO[Si](CCCNCCN)(OC)OC,CO[Si](CCCNCCN)(OC)OC,-2.073,-1.837,-1.481,-8.121,8.569
"Cyclohexanamine, 4,4'-methylenebis-",1761-71-3,NC1CCC(CC1)CC2CCC(N)CC2,NC1CCC(CC2CCC(N)CC2)CC1,-1.567,-3.2060000000000004,0.578,-3.117,10.848
Diethyldimethylplumbane,1762-27-2,CC[Pb](C)(C)CC,CC[Pb](C)(C)CC,2.201,-2.436,2.932,0.354,9.659
Ammonium thiocyanate,1762-95-4,[NH4+].[S-]C#N,N#C[S-].[NH4+],-1.092,-0.406,0.8320000000000001,-4.087,9.851
"1,3,6-Hexanetricarbonitrile",1772-25-4,N#CCCCC(CCC#N)C#N,N#CCCCC(C#N)CCC#N,-0.612,-2.279,-0.04,-6.422000000000001,17.54
"Aluminum, chlorobis(2-methylpropyl)-",1779-25-5,CC(C)C[Al](Cl)CC(C)C,CC(C)C[Al](Cl)CC(C)C,5.791,-3.27,4.288,-0.135,7.191
"Phosphinic acid, phenyl-",1779-48-2,O[PH](=O)c1ccccc1,O=[PH](O)c1ccccc1,1.0490000000000002,-1.382,-0.596,-11.071,0.472
sodium 3-hydroxy-4-[(1-hydroxy-2-naphthyl)azo]-7-nitronaphthalene-1-sulphonate,1787-61-7,[Na+].Oc1cc(c2cc(ccc2c1N=Nc3ccc4ccccc4c3O)[N+]([O-])=O)[S]([O-])(=O)=O,O=[N+]([O-])c1ccc2c(N=Nc3ccc4ccccc4c3O)c(O)cc(S(=O)(=O)[O-])c2c1.[Na+],2.5660000000000003,-3.9939999999999998,4.365,-10.442,5.791
"Phenol, 4-octyl-",1806-26-4,CCCCCCCCc1ccc(O)cc1,CCCCCCCCc1ccc(O)cc1,4.138,-4.612,5.832999999999998,-4.045,9.655
Dibutyl phosphonate,1809-19-4,CCCCO[PH](=O)OCCCC,CCCCO[PH](=O)OCCCC,4.618,-1.8530000000000002,2.111,-6.306,4.613
"Pyridine, 3,6-dichloro-2-(trichloromethyl)-",1817-13-6,Clc1ccc(Cl)c(n1)C(Cl)(Cl)Cl,Clc1ccc(Cl)c(C(Cl)(Cl)Cl)n1,3.961,-4.543,3.536,-3.293,5.936
"Benzene, 1-(1-methylethyl)-4-nitro-",1817-47-6,CC(C)c1ccc(cc1)[N+]([O-])=O,CC(C)c1ccc([N+](=O)[O-])cc1,4.519,-3.1910000000000003,3.537,-4.368,4.612
"7-chloro-1,3-dihydro-5-phenyl-2-oxo-2H-1,4-benzodiazepin-3-yl acetate",1824-74-4,CC(=O)OC1N=C(c2ccccc2)c3cc(Cl)ccc3NC1=O,CC(=O)OC1N=C(c2ccccc2)c2cc(Cl)ccc2NC1=O,2.9130000000000003,-3.61,3.173,-8.695,6.305
Nitrofen,1836-75-5,[O-][N+](=O)c1ccc(Oc2ccc(Cl)cc2Cl)cc1,O=[N+]([O-])c1ccc(Oc2ccc(Cl)cc2Cl)cc1,4.553,-4.909,4.589,-5.439,7.155
Octabenzone,1843-05-6,CCCCCCCCOc1ccc(c(O)c1)C(=O)c2ccccc2,CCCCCCCCOc1ccc(C(=O)c2ccccc2)c(O)c1,4.157,-5.305,6.776,-6.361000000000001,7.535
"Acetic acid, sulfo-, 1-dodecyl ester, sodium salt",1847-58-1,[Na+].CCCCCCCCCCCCOC(=O)C[S]([O-])(=O)=O,CCCCCCCCCCCCOC(=O)CS(=O)(=O)[O-].[Na+],3.457,-3.305,4.8260000000000005,-4.612,6.688
"2-Propenamide, N-(butoxymethyl)-",1852-16-0,CCCCOCNC(=O)C=C,C=CC(=O)NCOCCCC,1.768,-1.47,0.853,-8.638,7.185
"2-Imidazolidinone, 4,5-dihydroxy-1,3-bis",1854-26-8,OCN1C(O)C(O)N(CO)C1=O,O=C1N(CO)C(O)C(O)N1CO,-1.087,0.675,-1.893,-19.549,6.37
"Trisiloxane, 1,1,1,3,5,5,5-heptamethyl-",1873-88-7,C[SiH](O[Si](C)(C)C)O[Si](C)(C)C,C[SiH](O[Si](C)(C)C)O[Si](C)(C)C,-0.276,-1.916,4.307,-5.196000000000001,12.16
"Phenol, 2-(1,1-dimethylethyl)-4,6-dimethyl-",1879-09-0,Cc1cc(C)c(O)c(c1)C(C)(C)C,Cc1cc(C)c(O)c(C(C)(C)C)c1,4.793,-4.03,3.892,-4.165,12.095
Chlorothalonil,1897-45-6,Clc1c(Cl)c(C#N)c(Cl)c(C#N)c1Cl,N#Cc1c(Cl)c(Cl)c(Cl)c(C#N)c1Cl,2.737,-4.398,3.73,-6.131,6.406
"1,1-Dimethyl-4,4-bipyridinium dichloride",1910-42-5,[Cl-].[Cl-].C[N+]1(C)CC=C(C=C1)c2cc[nH+]cc2,C[N+]1(C)C=CC(c2cc[nH+]cc2)=CC1.[Cl-].[Cl-],-0.684,-3.011,-2.858,-5.1339999999999995,6.869
Atrazine,1912-24-9,CCNc1nc(Cl)nc(NC(C)C)n1,CCNc1nc(Cl)nc(NC(C)C)n1,2.464,-2.991,2.393,-9.001,2.454
"2-Pyridinecarboxylic acid, 4-amino-3,5,6-trichloro-",2/1/1918,Nc1c(Cl)c(Cl)nc(C(O)=O)c1Cl,Nc1c(Cl)c(Cl)nc(C(=O)O)c1Cl,-0.403,-2.6510000000000002,1.689,-10.648,3.317
"2-Ethylhexyl 2,4-dichlorophenoxyacetate",1928-43-4,CCCCC(CC)COC(=O)COc1ccc(Cl)cc1Cl,CCCCC(CC)COC(=O)COc1ccc(Cl)cc1Cl,4.5539999999999985,-5.12,5.53,-3.343,7.233
"Pyridine, 2-chloro-6-(trichloromethyl)-",1929-82-4,Clc1cccc(n1)C(Cl)(Cl)Cl,Clc1cccc(C(Cl)(Cl)Cl)n1,3.621,-3.915,3.042,-3.5439999999999996,6.263
"1H-Pyrazole-3-carboxylic acid, 4,5-dihydro-5-oxo-1-(4-sulfophenyl)-4-[(4-sulfophenyl)azo]-, trisodium salt",1934-21-0,[Na+].[Na+].[Na+].[O-]C(=O)C1=NN(C(=O)\C1=N/Nc2ccc(cc2)[S]([O-])(=O)=O)c3ccc(cc3)[S]([O-])(=O)=O,O=C([O-])C1=NN(c2ccc(S(=O)(=O)[O-])cc2)C(=O)/C1=N\Nc1ccc(S(=O)(=O)[O-])cc1.[Na+].[Na+].[Na+],1.3090000000000002,-2.6660000000000004,1.692,-12.133,3.619
"Glycine, N,N'-1,3-propanediylbis[N-(carboxymethyl)-",1939-36-2,OC(=O)CN(CCCN(CC(O)=O)CC(O)=O)CC(O)=O,O=C(O)CN(CCCN(CC(=O)O)CC(=O)O)CC(=O)O,-3.199,-0.862,-4.221,-13.388,6.808
"1,4-Benzenediol, 2-(1,1-dimethylethyl)-",1948-33-0,CC(C)(C)c1cc(O)ccc1O,CC(C)(C)c1cc(O)ccc1O,4.224,-3.073,2.011,-7.947,9.528
"Benzoic acid, 3,6-dichloro-2-methoxy-, sodium salt",1982-69-0,[Na+].COc1c(Cl)ccc(Cl)c1C([O-])=O,COc1c(Cl)ccc(Cl)c1C(=O)[O-].[Na+],2.249,-4.185,2.736,-5.404,6.24
Sodium octanate,6/1/1984,[Na+].CCCCCCCC([O-])=O,CCCCCCCC(=O)[O-].[Na+],3.51,-2.552,3.387,-2.929,2.912
"Anisole, 2,5-dichloro-",1984-58-3,COc1cc(Cl)ccc1Cl,COc1cc(Cl)ccc1Cl,3.868,-3.693,3.24,-3.093,6.666
"Decane, 1,1,1,2,2,3,3,4,4,5,5,6,6,7,7,8,8-heptadecafluoro-10-iodo-",2043-53-0,FC(F)(F)C(F)(F)C(F)(F)C(F)(F)C(F)(F)C(F)(F)C(F)(F)C(F)(F)CCI,FC(F)(F)C(F)(F)C(F)(F)C(F)(F)C(F)(F)C(F)(F)C(F)(F)C(F)(F)CCI,3.583,-5.149,5.93,2.7760000000000002,10.66
"Octane, 1,1,1,2,2,3,3,4,4,5,5,6,6-tridecafluoro-8-iodo-",2043-57-4,FC(F)(F)C(F)(F)C(F)(F)C(F)(F)C(F)(F)C(F)(F)CCI,FC(F)(F)C(F)(F)C(F)(F)C(F)(F)C(F)(F)C(F)(F)CCI,3.637,-4.949,5.345,2.531,10.451
"Butanamide, N,N-dimethyl-3-oxo-",2044-64-6,CN(C)C(=O)CC(C)=O,CC(=O)CC(=O)N(C)C,-1.315,-0.273,-1.22,-10.044,8.702
"Benzoic acid, 2-hydroxy-, pentyl ester",2050-08-0,CCCCCOC(=O)c1ccccc1O,CCCCCOC(=O)c1ccccc1O,4.184,-4.004,4.636,-6.417999999999999,8.454
"1-Pentanamine, N-phenyl-",2050-92-2,CCCCCNc1ccccc1,CCCCCNc1ccccc1,3.189,-3.6830000000000003,4.181,-4.523,4.548
"Octadecyl 3-(3,5-di-tert-butyl-4-hydroxyphenyl)propionate",2082-79-3,CCCCCCCCCCCCCCCCCCOC(=O)CCc1cc(c(O)c(c1)C(C)(C)C)C(C)(C)C,CCCCCCCCCCCCCCCCCCOC(=O)CCc1cc(C(C)(C)C)c(O)c(C(C)(C)C)c1,5.468,-5.8870000000000005,8.092,-2.877,9.481
"1,2,3,4-Tetrahydro-1,1,2,4,4,7-hexamethylnaphthale",2084-69-7,CC1CC(C)(C)c2ccc(C)cc2C1(C)C,Cc1ccc2c(c1)C(C)(C)C(C)CC2(C)C,5.246,-5.124,5.831,-1.3330000000000002,4.794
"Benzene, 1-Chloro-2,5-dimethoxy-",2100-42-7,COc1ccc(OC)c(Cl)c1,COc1ccc(OC)c(Cl)c1,3.405,-3.076,2.615,-4.463,7.223
"Stannane, tributyl[(2-methyl-1-oxo-2-propenyl)oxy]-",2155-70-6,CCCC[Sn](CCCC)(CCCC)OC(=O)C(C)=C,C=C(C)C(=O)O[Sn](CCCC)(CCCC)CCCC,5.402,-5.225,6.7620000000000005,-3.281,5.36
"1,4,5,6,7,7-hexachlorobicyclo-hept-5-ene-2,3-dimethanol",2157-19-9,OCC1C(Cl)C(=C(Cl)C(Cl)(Cl)C(Cl)(C2CCCC=CC2)C1CO)Cl,OCC1C(Cl)C(Cl)=C(Cl)C(Cl)(Cl)C(Cl)(C2CC=CCCC2)C1CO,3.687,-4.1960000000000015,4.163,-3.517,6.021
"1,3-Propanediol, 2-methyl-",2163-42-0,CC(CO)CO,CC(CO)CO,-1.024,-0.044000000000000004,-0.332,-9.977,11.985
"Pyridine, pentachloro-",2176-62-7,Clc1nc(Cl)c(Cl)c(Cl)c1Cl,Clc1nc(Cl)c(Cl)c(Cl)c1Cl,4.3,-4.5760000000000005,3.872,-4.3,2.166
"Benzene, 1-(dimethoxymethyl)-4-methoxy-",2186-92-7,COC(OC)c1ccc(OC)cc1,COc1ccc(C(OC)OC)cc1,2.436,-2.697,2.1790000000000003,-6.468999999999999,5.142
Molinate,2212-67-1,CCSC(=O)N1CCCCCC1,CCSC(=O)N1CCCCCC1,3.454,-2.5789999999999997,2.7910000000000004,-6.239,5.092
"Zinc tetrakis(1,3-dimethylbutyl)-bis(phosphorodithioate)",2215-35-2,[Zn++].CC(C)CC(C)O[P]([S-])(=S)OC(C)CC(C)C.CC(C)CC(C)O[P]([S-])(=S)OC(C)CC(C)C,CC(C)CC(C)OP(=S)([S-])OC(C)CC(C)C.CC(C)CC(C)OP(=S)([S-])OC(C)CC(C)C.[Zn+2],4.945,-4.609,6.005,-2.767,9.483
"Sodium [1,1'-biphenyl]-4-sulphonate",2217-82-5,[Na+].[O-][S](=O)(=O)c1ccc(cc1)c2ccccc2,O=S(=O)([O-])c1ccc(-c2ccccc2)cc1.[Na+],3.1910000000000003,-3.344,3.2110000000000003,-7.558,2.419
"2-Butanone, O,O',O''-(ethenylsilylidyne)trioxime",2224-33-1,CC/C(C)=N/O[Si@](O\N=C(C)\CC)(O\N=C(C)\CC)C=C,C=C[Si](O/N=C(\C)CC)(O/N=C(\C)CC)O/N=C(\C)CC,2.854,-3.7460000000000004,4.805,-6.909,7.038
"1-Piperidinyloxy, 4-hydroxy-2,2,6,6-tetramethyl-",2226-96-2,CC1(C)CC(O)CC(C)(C)N1[O],CC1(C)CC(O)CC(C)(C)N1[O],0.245,-1.714,0.895,-7.12,4.86
Carbonothioic dihydrazide,2231-57-4,NNC(=S)NN,NNC(=S)NN,-2.704,0.573,-2.469,-17.011,8.105
"2H-Azepin-2-one, 1-ethenylhexahydro-",2235-00-9,C=CN1CCCCCC1=O,C=CN1CCCCCC1=O,1.042,-1.4869999999999999,0.626,-7.386,9.704
"Phosphonic acid, [nitrilotris(methylene)]tris-, pentasodium salt",2235-43-0,[Na+].[Na+].[Na+].[Na+].[Na+].O[P]([O-])(=O)CN(C[P]([O-])([O-])=O)C[P]([O-])([O-])=O,O=P([O-])([O-])CN(CP(=O)([O-])[O-])CP(=O)([O-])O.[Na+].[Na+].[Na+].[Na+].[Na+],1.251,-0.883,-0.7759999999999999,-11.972999999999999,-0.191
Ammonium dodecyl sulfate,2235-54-3,[NH4+].CCCCCCCCCCCCO[S]([O-])(=O)=O,CCCCCCCCCCCCOS(=O)(=O)[O-].[NH4+],4.447,-3.0980000000000003,5.22,-3.4619999999999997,9.313
"1,5-Naphthalenediamine",2243-62-1,Nc1cccc2c(N)cccc12,Nc1cccc2c(N)cccc12,0.466,-2.6460000000000004,1.4340000000000002,-9.891,4.406
Tri-allate,2303-17-5,CC(C)N(C(C)C)C(=O)SCC(Cl)=C(Cl)Cl,CC(C)N(C(=O)SCC(Cl)=C(Cl)Cl)C(C)C,4.2360000000000015,-4.324,4.6960000000000015,-4.803999999999999,7.634
Propargite,2312-35-8,CC(C)(C)c1ccc(OC2CCCCC2O[S](=O)OCC#C)cc1,C#CCOS(=O)OC1CCCCC1Oc1ccc(C(C)(C)C)cc1,4.663,-3.9560000000000004,5.207999999999998,-5.647,8.206
Sodium butoxide,2372-45-4,[Na+].CCCC[O-],CCCC[O-].[Na+],2.543,-1.6130000000000002,1.692,-2.057,4.261
"Succinic acid, sulfo-, bis(1,3-dimethylbutyl) ester, sodium",2373-38-8,[Na+].CC(C)CC(C)OC(=O)CC(C(=O)OC(C)CC(C)C)[S]([O-])(=O)=O,CC(C)CC(C)OC(=O)CC(C(=O)OC(C)CC(C)C)S(=O)(=O)[O-].[Na+],2.733,-3.4930000000000003,3.782,-5.436,7.461
"Cyclotrisiloxane, 2,4,6-trimethyl-2,4,6-tris(3,3,3-trifluoropropyl)-",2374-14-3,C[Si]1(CCC(F)(F)F)O[Si](C)(CCC(F)(F)F)O[Si](C)(CCC(F)(F)F)O1,C[Si]1(CCC(F)(F)F)O[Si](C)(CCC(F)(F)F)O[Si](C)(CCC(F)(F)F)O1,3.3760000000000003,-2.8739999999999997,6.069,-2.349,11.156
"7-Oxabicyclo[4.1.0]heptane-3-carboxylic acid, 7-oxabicyclo[4.1.0]hept-3-ylmethylester",2386-87-0,O=C(OCC1CCC2OC2C1)C3CCC4OC4C3,O=C(OCC1CCC2OC2C1)C1CCC2OC2C1,2.535,-3.9989999999999997,1.318,-6.002999999999999,5.308
"2-Nitrobenzene, 4-chloro-1-(2,4-dichlorophenoxy)-",2392-48-5,[O-][N+](=O)c1cc(Cl)ccc1Oc2ccc(Cl)cc2Cl,O=[N+]([O-])c1cc(Cl)ccc1Oc1ccc(Cl)cc1Cl,4.515,-5.4110000000000005,4.829,-4.6930000000000005,6.291
"Pyridine, 2,3,5,6-tetrachloro-",2402-79-1,Clc1cc(Cl)c(Cl)nc1Cl,Clc1cc(Cl)c(Cl)nc1Cl,4.123,-3.747,3.312,-4.0569999999999995,1.488
"4-Piperidinol, 2,2,6,6-tetramethyl-",2403-88-5,CC1(C)CC(O)CC(C)(C)N1,CC1(C)CC(O)CC(C)(C)N1,-1.844,-1.785,1.103,-6.431,10.319
"Phenol, 2-(1,1-dimethylethyl)-4-methyl-",2409-55-4,Cc1ccc(O)c(c1)C(C)(C)C,Cc1ccc(O)c(C(C)(C)C)c1,4.615,-3.7310000000000003,3.425,-4.564,11.614
"Phenol, 2,3,6-trimethyl-",2416-94-6,Cc1ccc(C)c(O)c1C,Cc1ccc(C)c(O)c1C,3.4530000000000003,-2.762,2.952,-5.059,9.835
"5-(4-hydroxyphenyl)imidazolidine-2,4-dione",2420-17-9,Oc1ccc(cc1)C2NC(=O)NC2=O,O=C1NC(=O)C(c2ccc(O)cc2)N1,0.609,-1.262,0.027000000000000003,-14.909,6.4
"1,3-Isobenzofurandione, 5,5'-carbonylbis-",2421-28-5,O=C1OC(=O)c2cc(ccc12)C(=O)c3ccc4C(=O)OC(=O)c4c3,O=C(c1ccc2c(c1)C(=O)OC2=O)c1ccc2c(c1)C(=O)OC2=O,1.999,-4.386,2.138,-9.908999999999999,5.255
"Tetradecane, 1-chloro-",2425-54-9,CCCCCCCCCCCCCCCl,CCCCCCCCCCCCCCCl,5.591,-5.261,8.036,-0.03,8.561
"1-Decanol, 2-hexyl-",2425-77-6,CCCCCCCCC(CO)CCCCCC,CCCCCCCCC(CO)CCCCCC,4.763,-4.498,6.405,-1.781,6.286
"Oxirane, (butoxymethyl)-",8/6/2426,CCCCOCC1CO1,CCCCOCC1CO1,2.504,-1.5219999999999998,1.263,-5.542999999999999,9.223
"1-Butene, 2,3,4-trichloro-",2431-50-7,ClCC(Cl)C(Cl)=C,C=C(Cl)C(Cl)CCl,4.507,-3.213,2.456,-1.845,11.335
"2-Butene, 1,2,4-trichloro-",2431-54-1,ClCC=C(Cl)CCl,ClCC=C(Cl)CCl,4.664,-2.6069999999999998,2.4090000000000003,-1.8869999999999998,14.279
"Undecanoic acid, 11-amino-",2432-99-7,NCCCCCCCCCCC(O)=O,NCCCCCCCCCCC(=O)O,-0.419,-3.156,0.682,-5.874,8.777
"1,6-Octadiene, 3,7-dimethyl-",2436-90-0,CC(CCC=C(C)C)C=C,C=CC(C)CCC=C(C)C,4.33,-3.6319999999999997,5.159,0.5,8.219
Ammonium dodecanoate,2437-23-2,[NH4+].CCCCCCCCCCCC([O-])=O,CCCCCCCCCCCC(=O)[O-].[NH4+],4.128,-3.762,5.622999999999998,-2.104,8.684
Dodecanenitrile,2437-25-4,CCCCCCCCCCCC#N,CCCCCCCCCCCC#N,4.129,-4.15,5.035,-1.683,10.35
1-Tridecene,2437-56-1,CCCCCCCCCCCC=C,C=CCCCCCCCCCCC,5.254,-4.872,7.5470000000000015,0.659,6.549
2-(Dimethylamino)ethyl acrylate,2439-35-2,CN(C)CCOC(=O)C=C,C=CC(=O)OCCN(C)C,-0.926,-1.569,0.193,-7.044,8.21
"Phenol, 2-(2H-benzotriazol-2-yl)-4-methyl-",2440-22-4,Cc1ccc(O)c(c1)n2nc3ccccc3n2,Cc1ccc(O)c(-n2nc3ccccc3n2)c1,2.929,-3.389,3.004,-10.681,6.881
Triglycidyl isocyanurate,2451-62-9,O=C1N(CC2CO2)C(=O)N(CC3CO3)C(=O)N1CC4CO4,O=c1n(CC2CO2)c(=O)n(CC2CO2)c(=O)n1CC1CO1,0.57,-2.135,0.765,-15.886,8.533
C.I. Disperse Blue 3,2475-46-9,CNc1ccc(NCCO)c2C(=O)c3ccccc3C(=O)c12,CNc1ccc(NCCO)c2c1C(=O)c1ccccc1C2=O,1.6740000000000002,-3.786,2.925,-11.513,7.768
"Silane, trimethoxy-",2487-90-3,CO[SiH](OC)OC,CO[SiH](OC)OC,-1.005,-0.17300000000000001,-0.57,-6.4910000000000005,8.749
"2(3H)-Benzothiazolethione, sodium salt",2492-26-4,[Na+].[S-]c1sc2ccccc2n1,[Na+].[S-]c1nc2ccccc2s1,2.787,-3.891,2.591,-4.961,2.386
"Ethanol, 2-[(4-aminophenyl)sulfonyl]-, hydrogen sulfate (ester)",2494-89-5,Nc1ccc(cc1)[S](=O)(=O)CCO[S](O)(=O)=O,Nc1ccc(S(=O)(=O)CCOS(=O)(=O)O)cc1,0.521,-1.021,-2.121,-12.165999999999999,5.407