chemical_name,cas,smiles,canonical_smiles,log_p,log_s,kow,water-energy,pka
Cyclooctene,931-88-4,C1CCCC=CCC1,C1=CCCCCCC1,3.913,-2.3609999999999998,3.424,0.5770000000000001,4.636
4-ethyl-o-xylene,934-80-5,CCc1ccc(C)c(C)c1,CCc1ccc(C)c(C)c1,4.425,-3.4619999999999997,4.351,-1.703,4.735
"p-Benzoquinone, 2,3,6-trimethyl-",935-92-2,CC1=CC(=O)C(=C(C)C1=O)C,CC1=CC(=O)C(C)=C(C)C1=O,2.295,-1.465,1.802,-7.042999999999999,3.727
"Benzaldehyde, p-tert-butyl-",939-97-9,CC(C)(C)c1ccc(C=O)cc1,CC(C)(C)c1ccc(C=O)cc1,4.38,-3.5,3.8,-4.071000000000001,2.852
"1H-Pyrrole-2,5-dione, 1-phenyl",941-69-5,O=C1C=CC(=O)N1c2ccccc2,O=C1C=CC(=O)N1c1ccccc1,1.128,-2.327,1.114,-10.245,6.046
Dodecane-12-lactam,947-04-6,O=C1CCCCCCCCCCCN1,O=C1CCCCCCCCCCCN1,1.972,-1.685,2.199,-4.298,12.342
diphenylsilanediol,947-42-2,O[Si](O)(c1ccccc1)c2ccccc2,O[Si](O)(c1ccccc1)c1ccccc1,0.8240000000000001,-2.312,1.591,-11.967,8.615
"Methanesulphone, 4'-(1-Hydroxy-2-isopropylaminoethyl)-",959-24-0,[H+].[Cl-].CC(C)NCC(O)c1ccc(N[S](C)(=O)=O)cc1,CC(C)NCC(O)c1ccc(NS(C)(=O)=O)cc1.[Cl-].[H+],-0.8270000000000001,-2.0,0.126,-11.19,7.115
"Borane, triphenyl-",960-71-4,c1ccc(cc1)B(c2ccccc2)c3ccccc3,c1ccc(B(c2ccccc2)c2ccccc2)cc1,3.948,-5.231,5.567,-4.671,3.966
Potassium (R)-[(3-ethoxy-1-methyl-3-oxoprop-1-enyl,961-69-3,[K+].CCOC(=O)/C=C(/C)NC(C([O-])=O)c1ccccc1,CCOC(=O)/C=C(/C)NC(C(=O)[O-])c1ccccc1.[K+],2.407,-3.364,2.58,-9.156,7.707
Demoxepam,963-39-3,ON1CC(=O)N=C2C=CC(=CC2=C1c3ccccc3)Cl,O=C1CN(O)C(c2ccccc2)=c2cc(Cl)ccc2=N1,1.974,-3.1510000000000002,2.132,-9.24,3.657
"Quino[2,3-b]acridine-7,14-dione, 5,12-dihydro-2,9-dimethyl-",980-26-7,Cc1ccc2Nc3cc4C(=O)c5cc(C)ccc5Nc4cc3C(=O)c2c1,Cc1ccc2[nH]c3cc4c(=O)c5cc(C)ccc5[nH]c4cc3c(=O)c2c1,3.292,-4.415,4.239,-11.847999999999999,8.428
"Stannane, trichloromethyl-",993-16-8,ClC(Cl)(Cl)[SnH3],ClC(Cl)(Cl)[SnH3],4.793,-2.314,2.528,-1.568,15.245
tert-Amyl methyl ether,994-05-8,CCC(C)(C)OC,CCC(C)(C)OC,1.733,-1.736,1.73,-0.951,10.21
"1,2,3-Propanetricarboxylic acid, 2-hydroxy-, sodium salt",994-36-5,[Na+].OC(=O)CC(O)(CC([O-])=O)C(O)=O,O=C([O-])CC(O)(CC(=O)O)C(=O)O.[Na+],-4.167,-0.541,-0.996,-13.065999999999999,2.782
"Ethanaminium, 2-chloro-N,N,N-trimethyl-",999-81-5,C[N+](C)(C)CCCl,C[N+](C)(C)CCCl,-2.535,-1.751,-3.993,-2.142,6.139
"Silanamine, trimethyl-N-trimethylsilyl-",999-97-3,C[Si](C)(C)N[Si](C)(C)C,C[Si](C)(C)N[Si](C)(C)C,-3.619,-2.2119999999999997,3.592,-5.524,12.266
"Urea, (hydroxymethyl)-",1000-82-4,NC(=O)NCO,NC(=O)NCO,-1.329,1.094,-1.546,-15.095999999999998,10.913
"Decanoic acid, sodium salt",1002-62-6,[Na+].CCCCCCCCCC([O-])=O,CCCCCCCCCC(=O)[O-].[Na+],4.0139999999999985,-3.302,4.627,-2.552,3.502
"Decane, 1-chloro-",1002-69-3,CCCCCCCCCCCl,CCCCCCCCCCCl,5.5070000000000014,-4.407,5.8210000000000015,0.022000000000000002,8.603
"Octadecanoic acid, ammonium salt",1002-89-7,N.CCCCCCCCCCCCCCCCCC(O)=O,CCCCCCCCCCCCCCCCCC(=O)O.N,3.25,-4.526,7.167999999999998,-2.6860000000000004,5.733
Propyloxirane,1003-14-1,CCCC1CO1,CCCC1CO1,2.7460000000000004,-1.7409999999999999,1.5930000000000002,-3.2969999999999997,6.0
"Quino[2,3-b]acridine-7,14-dione, 5,12-dihydro-",1047-16-1,O=C1c2ccccc2Nc3cc4C(=O)c5ccccc5Nc4cc13,O=c1c2ccccc2[nH]c2cc3c(=O)c4ccccc4[nH]c3cc12,2.863,-4.08,3.466,-12.482999999999999,8.863
Ammonium hydrogencarbonate,1066-33-7,[NH4+].OC([O-])=O,O=C([O-])O.[NH4+],-5.604,0.45799999999999996,-1.095,-6.577999999999999,4.874
"Silane, chlorodimethyl-",1066-35-9,C[SiH](C)Cl,C[SiH](C)Cl,1.114,-1.4140000000000001,1.7280000000000002,-0.9,12.461
"2,5,7,10-Tetraoxa-6-silaundecane, 6-ethenyl-6-(2-methoxyethoxy)-",1067-53-4,COCCO[Si](OCCOC)(OCCOC)C=C,C=C[Si](OCCOC)(OCCOC)OCCOC,1.173,-2.105,-0.078,-7.71,14.6
"Aluminium, trioctyl-",1070-00-4,CCCCCCCC[Al](CCCCCCCC)CCCCCCCC,CCCCCCCC[Al](CCCCCCCC)CCCCCCCC,5.456,-5.728,9.515,-0.457,7.09
"Propanenitrile, 3-(trichlorosilyl)-",1071-22-3,Cl[Si](Cl)(Cl)CCC#N,N#CCC[Si](Cl)(Cl)Cl,2.01,-2.627,1.76,-4.15,15.166
"Glycine, N-(phosphonomethyl)-  (Glyphosate)",1071-83-6,OC(=O)CNC[P](O)(O)=O,O=C(O)CNCP(=O)(O)O,-0.21600000000000005,0.981,-4.877,-17.204,6.033
Lead distearate,1072-35-1,[Pb++].CCCCCCCCCCCCCCCCCC([O-])=O.CCCCCCCCCCCCCCCCCC([O-])=O,CCCCCCCCCCCCCCCCCC(=O)[O-].CCCCCCCCCCCCCCCCCC(=O)[O-].[Pb+2],5.1,-5.015,8.6,-1.607,9.159
"1,4-Cyclohexanedicarboxylic acid",1076-97-7,OC(=O)C1CCC(CC1)C(O)=O,O=C(O)C1CCC(C(=O)O)CC1,-1.348,-1.2890000000000001,-0.057,-9.357999999999999,5.108
Dichlofluanid,1085-98-9,CN(C)[S](=O)(=O)N(SC(F)(Cl)Cl)c1ccccc1,CN(C)S(=O)(=O)N(SC(F)(Cl)Cl)c1ccccc1,2.7060000000000004,-4.131,3.227,-10.04,10.033
"C.I. Pigment Red 49, barium salt (2:1)",1103-38-4,[Ba++].[O-][S](=O)(=O)c1c(N\N=C\2C(=O)C=Cc3ccccc23)ccc4ccccc14.[O-][S](=O)(=O)c5c(N\N=C\6C(=O)C=Cc7ccccc67)ccc8ccccc58,O=C1C=Cc2ccccc2/C1=N/Nc1ccc2ccccc2c1S(=O)(=O)[O-].O=C1C=Cc2ccccc2/C1=N/Nc1ccc2ccccc2c1S(=O)(=O)[O-].[Ba+2],3.269,-3.8369999999999997,3.629,-10.288,8.347
Ammonium carbamate,1111-78-0,[NH4+].NC([O-])=O,NC(=O)[O-].[NH4+],-1.032,0.496,-1.289,-8.769,13.138
"Silane, dimethoxydimethyl-",1112-39-6,CO[Si](C)(C)OC,CO[Si](C)(C)OC,-1.57,-0.8190000000000001,0.3720000000000001,-3.7039999999999997,9.566
"Propanoic acid, 3-hydroxy-2,2-dimethyl-, 3-hydroxy-2,2-dimethylpropyl ester",1115-20-4,CC(C)(CO)COC(=O)C(C)(C)CO,CC(C)(CO)COC(=O)C(C)(C)CO,3.58,-1.729,1.257,-8.571,9.624
"Aluminum, tributyl-",1116-70-7,CCCC[Al](CCCC)CCCC,CCCC[Al](CCCC)CCCC,5.364,-4.416,5.718,-0.639,6.231
"Aluminum, trihexyl-",1116-73-0,CCCCCC[Al](CCCCCC)CCCCCC,CCCCCC[Al](CCCCCC)CCCCCC,5.292999999999998,-5.206,8.196,-0.518,6.781
"Stannane, butyltrichloro-",1118-46-3,CCCC[Sn](Cl)(Cl)Cl,CCCC[Sn](Cl)(Cl)Cl,5.235,-3.465,3.402,-1.128,14.623
"Octanamide, N,N-dimethyl-",1118-92-9,CCCCCCCC(=O)N(C)C,CCCCCCCC(=O)N(C)C,2.766,-2.2769999999999997,2.205,-5.388,6.385
"Glutaric acid, dimethyl ester",1119-40-0,COC(=O)CCCC(=O)OC,COC(=O)CCCC(=O)OC,1.278,-1.251,0.511,-5.172000000000001,5.924
n-Undecane,1120-21-4,CCCCCCCCCCC,CCCCCCCCCCC,5.279,-4.417,6.393,1.228,6.385
1-Tetradecene,1120-36-1,CCCCCCCCCCCCC=C,C=CCCCCCCCCCCCC,5.294,-5.069,8.027999999999999,0.6,6.688
Didecylamine,1120-49-6,CCCCCCCCCCNCCCCCCCCCC,CCCCCCCCCCNCCCCCCCCCC,3.31,-5.109,7.307,-1.79,10.302
Sodium 3-aminobenzenesulfonate,1126-34-7,[Na+].Nc1cccc(c1)[S]([O-])(=O)=O,Nc1cccc(S(=O)(=O)[O-])c1.[Na+],0.182,-1.4680000000000002,0.58,-10.464,2.783
S-Ethyl N-cyclohexylthiocarbamate,1134-23-2,CCSC(=O)NC1CCCCC1,CCSC(=O)NC1CCCCC1,3.729,-2.823,3.388,-6.027,3.802
"2,6-Naphthalenedicarboxylic acid",1141-38-4,OC(=O)c1ccc2cc(ccc2c1)C(O)=O,O=C(O)c1ccc2cc(C(=O)O)ccc2c1,-1.08,-2.971,2.4730000000000003,-10.923,3.505
"Benzoic acid, 2-(4-ethylbenzoyl)-",1151-14-0,CCc1ccc(cc1)C(=O)c2ccccc2C(O)=O,CCc1ccc(C(=O)c2ccccc2C(=O)O)cc1,0.344,-4.202,3.807,-8.502,3.888
Tolazamide,1156-19-0,Cc1ccc(cc1)[S](=O)(=O)NC(=O)NN2CCCCCC2,Cc1ccc(S(=O)(=O)NC(=O)NN2CCCCCC2)cc1,-0.228,-2.399,1.828,-12.76,4.881
"Benzene, 1,1'-oxybis[2,3,4,5,6-pentabromo]-",1163-19-5,Brc1c(Br)c(Br)c(Oc2c(Br)c(Br)c(Br)c(Br)c2Br)c(Br)c1Br,Brc1c(Br)c(Br)c(Oc2c(Br)c(Br)c(Br)c(Br)c2Br)c(Br)c1Br,5.2029999999999985,-9.184,7.626,-4.828,5.556
"Silane, trimethoxymethyl-",1185-55-3,COC([SiH3])(OC)OC,COC([SiH3])(OC)OC,-0.343,-0.379,0.207,-4.66,9.938
Diisobutylaluminium hydride,1191-15-7,[H-].CC(C)C[Al+]CC(C)C,CC(C)C[Al+]CC(C)C.[H-],1.692,-2.83,1.476,0.466,11.206
"4,6-Dichloropyrimidine",1193-21-1,Clc1cc(Cl)ncn1,Clc1cc(Cl)ncn1,1.257,-1.723,1.494,-6.657,1.572
"1H-Indene, 2,3-dihydro-1,1,2,3,3-pentamethyl-",1203-17-4,CC1C(C)(C)c2ccccc2C1(C)C,CC1C(C)(C)c2ccccc2C1(C)C,4.655,-5.232,5.246,-1.4240000000000002,4.477
"1H-Indene-5-ethanol, 2,3-dihydro-beta,1,1,2,3,3-hexamethyl-",1217-08-9,CC(CO)c1ccc2c(c1)C(C)(C)C(C)C2(C)C,CC(CO)c1ccc2c(c1)C(C)(C)C(C)C2(C)C,4.246,-5.0710000000000015,4.836,-4.102,5.388
"Cyclopenta[g]-2-benzopyran, 1,3,4,6,7,8-hexahydro-4,6,6,7,8,8-hexamethyl-",1222-05-5,CC1COCc2cc3c(cc12)C(C)(C)C(C)C3(C)C,CC1COCc2cc3c(cc21)C(C)(C)C(C)C3(C)C,4.543,-4.904,5.4460000000000015,-3.426,4.287
"Phosphoric acid, 2-ethylhexyl diphenyl ester",1241-94-7,CCCCC(CC)CO[P](=O)(Oc1ccccc1)Oc2ccccc2,CCCCC(CC)COP(=O)(Oc1ccccc1)Oc1ccccc1,4.4430000000000005,-5.435,5.5710000000000015,-4.971,3.64
"Benzenesulfonic acid, hydroxy-, monosodium salt",1300-51-2,[Na+].Oc1ccccc1[S]([O-])(=O)=O,O=S(=O)([O-])c1ccccc1O.[Na+],1.147,-1.6440000000000001,1.113,-9.937000000000001,8.914
"Phenol, dimethyl-",1300-71-6,Cc1cccc(O)c1C,Cc1cccc(O)c1C,3.102,-2.372,2.451,-5.513,9.802
"Benzenesulfonic acid, dimethyl-, sodium salt",1300-72-7,[Na+].Cc1ccc(cc1C)[S]([O-])(=O)=O,Cc1ccc(S(=O)(=O)[O-])cc1C.[Na+],2.85,-2.339,2.189,-7.324,3.226
Aluminium sodium dioxide,1302-42-7,[Na+].O=[Al-]=O,O=[Al-]=O.[Na+],-3.224,-0.139,1.23,-5.917999999999999,-8.081
Spinel(Mg(AlO2)2),1302-67-6,[Mg++].[O-][Al]=O.[O-][Al]=O,O=[Al][O-].O=[Al][O-].[Mg+2],-1.248,-0.11900000000000001,1.521,-5.315,7.162
Bentonite,1302-78-9,O.O=[Al]O[Al]=O.O=[Si]=O.O=[Si]=O.O=[Si]=O.O=[Si]=O,O.O=[Al]O[Al]=O.O=[Si]=O.O=[Si]=O.O=[Si]=O.O=[Si]=O,-4.3610000000000015,0.562,0.5489999999999999,-7.531000000000001,0.861
Mullite,1302-93-8,O=[Al]O[Al]=O.O=[Al]O[Al]=O.O=[Al]O[Al]=O.O=[Si]=O.O=[Si]=O,O=[Al]O[Al]=O.O=[Al]O[Al]=O.O=[Al]O[Al]=O.O=[Si]=O.O=[Si]=O,-2.8080000000000003,0.465,0.453,-7.662999999999999,1.824
Diboron trioxide,1303-86-2,O=BOB=O,O=BOB=O,-3.122,0.355,1.106,-7.747000000000001,1.782
Borax(Na2(B4O7).10H2O),1303-96-4,O.O.O.O.O.O.O.O.O.O.[Na+].[Na+].[O-]B(OB=O)OB([O-])OB=O,O.O.O.O.O.O.O.O.O.O.O=BOB([O-])OB([O-])OB=O.[Na+].[Na+],-1.187,-0.621,1.5490000000000002,-6.9110000000000005,5.744
Calcium dihydroxide,1305-62-0,[OH-].[OH-].[Ca++],[Ca+2].[OH-].[OH-],0.596,-1.465,1.381,-4.245,17.029
Calcium oxide,1305-78-8,O=[Ca],O=[Ca],-0.173,0.397,-0.802,-5.143,-0.519
Cadmium oxide,1306-19-0,O=[Cd],O=[Cd],0.154,0.141,-0.68,-4.548,-0.9
Cerium dioxide,1306-38-3,O=[Ce]=O,O=[Ce]=O,-3.676,0.513,0.3720000000000001,-6.718999999999999,-0.199
Dichromium iron tetraoxide,1308-31-2,[O--].[O--].[O--].[Cr+3].[Fe+3],[Cr+3].[Fe+3].[O-2].[O-2].[O-2],1.463,-1.538,1.594,-4.346,5.366
Chromium (III) oxide(Cr2O3),1308-38-9,O=[Cr]O[Cr]=O,O=[Cr]O[Cr]=O,-1.238,0.494,-0.211,-8.185,2.943
Pyrite(FeS2),1309-36-0,S=[Fe]=S,S=[Fe]=S,-0.104,-0.821,2.712,-4.5169999999999995,-14.57
Diiron trioxide,1309-37-1,O.[O--].[O--].[O--].[Fe+3].[Fe+3],O.[Fe+3].[Fe+3].[O-2].[O-2].[O-2],1.298,-1.253,1.395,-4.46,6.921
Magnesium hydroxide,1309-42-8,[OH-].[OH-].[Mg++],[Mg+2].[OH-].[OH-],0.474,-1.5130000000000001,1.291,-4.297,16.283
Magnesium oxide,1309-48-4,O=[Mg],O=[Mg],-0.13699999999999998,0.18899999999999997,-1.068,-5.0169999999999995,-1.856
Molybdenite,1309-56-4,S=[Mo]=S,S=[Mo]=S,-0.958,-1.115,2.804,-4.099,-12.867
Diantimony trioxide,1309-64-4,[O--].[O--].[O--].[Sb+3].[Sb+3],[O-2].[O-2].[O-2].[Sb+3].[Sb+3],1.469,-1.556,1.963,-4.382,5.223
Potassium hydroxide,1310-58-3,[OH-].[K+],[K+].[OH-],0.502,-1.608,0.7290000000000001,-4.14,9.199
Sodium hydroxide,1310-73-2,[OH-].[Na+],[Na+].[OH-],0.102,-1.6480000000000001,0.662,-4.128,2.123
Potassium silicate,1312-76-1,[K+].[K+].[K+].[K+].[O-][Si]([O-])([O-])[O-],[K+].[K+].[K+].[K+].[O-][Si]([O-])([O-])[O-],0.516,-1.11,0.937,-6.242999999999999,9.108
Manganese dioxide,1313-13-9,O=[Mn]=O,O=[Mn]=O,-4.102,0.649,-0.575,-7.098,0.916
Molybdenum trioxide,1313-27-5,O=[Mo](=O)=O,O=[Mo](=O)=O,-6.04,1.3459999999999999,-3.0,-9.145,1.737
Disodium sulfide,1313-82-2,[Na+].[Na+].[SH-],[Na+].[Na+].[SH-],1.204,-2.052,1.537,-3.469,-1.832
Nickel monoxide,1313-99-1,O=[Ni],O=[Ni],-0.584,0.065,-3.214,-4.712,-1.089
Zinc oxide,1314-13-2,O=[Zn],O=[Zn],0.077,0.132,-0.88,-5.01,-0.16
Zirconium dioxide,1314-23-4,O=[Zr]=O,O=[Zr]=O,-3.3560000000000003,0.764,0.05,-7.035,-0.808
Lead oxide(Pb3O4),1314-41-6,O1[Pb]O[Pb]2O[Pb]1O2,O1[Pb]O[Pb]2O[Pb]1O2,1.027,0.358,1.332,-11.956,6.269
Phosphorus pentoxide,1314-56-3,O=[P]12O[P]3(=O)O[P](=O)(O1)O[P](=O)(O2)O3,O=P12OP3(=O)OP(=O)(O1)OP(=O)(O2)O3,4.737,0.6629999999999999,-1.859,-14.943,12.548
Divanadium pentaoxide,1314-62-1,O=[V](=O)O[V](=O)=O,O=[V](=O)O[V](=O)=O,-2.952,0.9940000000000001,-1.511,-10.011000000000001,1.443
Diphosphorus pentasulfide,1314-80-3,S=[P]12S[P]3(=S)S[P](=S)(S1)S[P](=S)(S2)S3,S=P12SP3(=S)SP(=S)(S1)SP(=S)(S2)S3,2.11,-7.612999999999999,2.728,-5.172000000000001,24.697
Zinc sulfide,1314-98-3,S=[Zn],S=[Zn],1.107,-0.752,1.1840000000000002,-3.467,-3.01
Molybdenum disulfide,1317-33-5,S=[Mo]=S,S=[Mo]=S,-0.958,-1.115,2.804,-4.099,-12.867
Lead monoxide (PbO),1317-36-8,O=[Pb],O=[Pb],-0.122,0.004,-0.7340000000000001,-4.577,0.162
Copper (II) oxide (CuO),1317-38-0,O=[Cu],O=[Cu],-0.349,0.205,-2.335,-4.946000000000001,-0.048
Cobalt sulphide,1317-42-6,S=[Co],S=[Co],0.944,-0.5920000000000001,1.375,-3.827,-6.662
Hematite,1317-60-8,[O--].[O--].[O--].[Fe+3].[Fe+3],[Fe+3].[Fe+3].[O-2].[O-2].[O-2],1.533,-1.416,1.4269999999999998,-4.248,5.792
Limestone,1317-65-3,[Ca++].[O-]C([O-])=O,O=C([O-])[O-].[Ca+2],-1.5319999999999998,-0.326,0.617,-4.3469999999999995,14.069
Anatase (TiO2),1317-70-0,O=[Ti]=O,O=[Ti]=O,-3.962,0.7959999999999999,0.107,-7.629,-1.225
Rutile (TiO2),1317-80-2,O=[Ti]=O,O=[Ti]=O,-3.962,0.7959999999999999,0.107,-7.629,-1.225
Boehmite (Al(OH)O),1318-23-6,[OH-].[O--].[Al+3],[Al+3].[O-2].[OH-],0.841,-1.4809999999999999,1.378,-4.395,8.592
Chlorite-group minerals,1318-59-8,[O-][Cl]=O,[O-][Cl+][O-],0.285,-0.331,1.824,-5.034,16.573
Kaolinite,1318-74-7,O=[Al]O[Al]=O.O=[Si]=O,O=[Al]O[Al]=O.O=[Si]=O,-3.198,0.501,0.459,-7.659,1.621
"Methylstyrene, mixed isomers",1319-73-9,Cc1ccc(C=C)cc1,C=Cc1ccc(C)cc1,3.326,-3.333,3.375,-2.141,3.562
"Cresol, mixed",1319-77-3,Cc1ccc(O)cc1,Cc1ccc(O)cc1,2.629,-2.245,1.899,-6.435,10.272
"Toluene, nitro-",1321-12-6,Cc1ccccc1[N+]([O-])=O,Cc1ccccc1[N+](=O)[O-],2.774,-2.481,2.3680000000000003,-3.889,3.827
"Benzene, diethenyl-",1321-74-0,C=Cc1ccccc1C=C,C=Cc1ccccc1C=C,2.722,-3.7739999999999996,3.39,-2.841,3.877
"Naphthalene, methyl-",1321-94-4,Cc1cccc2ccccc12,Cc1cccc2ccccc12,3.863,-3.8310000000000004,3.852,-2.87,3.414
"Octadecanoic acid, monoester with 1,2-propanediol",1323-39-3,CCCCCCCCCCCCCCCCCC(O)=O.CC(O)CO,CC(O)CO.CCCCCCCCCCCCCCCCCC(=O)O,1.984,-3.178,3.391,-4.756,6.139
"Phenol, dinonyl-",1323-65-5,CCCCCCCCCc1cccc(O)c1CCCCCCCCC,CCCCCCCCCc1cccc(O)c1CCCCCCCCC,5.008,-5.9170000000000025,9.022,-2.594,8.133
C.I. Pigment Blue 61,1324-76-1,O[S](=O)(=O)c1ccccc1N=C2C=CC(C=C2)=C(c3ccc(Nc4ccccc4)cc3)c5ccc(Nc6ccccc6)cc5,O=S(=O)(O)c1ccccc1N=C1C=CC(=C(c2ccc(Nc3ccccc3)cc2)c2ccc(Nc3ccccc3)cc2)C=C1,3.652,-4.907,3.104,-9.498,0.166
Aluminium chlorohydrate,1327-41-9,[AlH2].OCl,OCl.[AlH2],-0.191,0.01,0.391,-5.419,8.666
Arsenic oxide (As2O3),1327-53-3,[O--].[O--].[O--].[As+3].[As+3],[As+3].[As+3].[O-2].[O-2].[O-2],1.3019999999999998,-1.545,2.022,-4.225,4.658
C.I. Pigment Green 7,1328-53-6,Clc1cc(Cl)c2C3N=C(N=C4N5[Cu]N6C(N=C7N=C(N=C5c8c(Cl)c(Cl)c(Cl)c(Cl)c48)c9c(Cl)c(Cl)c(Cl)c(Cl)c79)c%10c(Cl)c(Cl)c(Cl)c(Cl)c%10C6=N3)c2c1Cl,Clc1cc(Cl)c2c(c1Cl)C1=NC2N=C2c3c(Cl)c(Cl)c(Cl)c(Cl)c3C3N=C4N=C(N=c5c6c(Cl)c(Cl)c(Cl)c(Cl)c6c(n5[Cu]N23)=N1)c1c(Cl)c(Cl)c(Cl)c(Cl)c14,3.868,-6.727,5.848,-7.563,4.252
Xyrene,1330-20-7,Cc1cccc(C)c1,Cc1cccc(C)c1,3.928,-3.0380000000000003,3.256,-0.99,3.965
"Disodium tetraborate, anhydrous",1330-43-4,[B+3].[B+3].[B+3].[B+3].O.O.O.O.O.O.O.[O--].[O--].[O--].[O--].[O--].[O--].[O--].[Na+].[Na+],O.O.O.O.O.O.O.[B+3].[B+3].[B+3].[B+3].[Na+].[Na+].[O-2].[O-2].[O-2].[O-2].[O-2].[O-2].[O-2],0.75,-1.1909999999999998,1.5,-4.809,3.92
Isodecyl acrylate,1330-61-6,CC(C)CCCCCCCOC(=O)C=C,C=CC(=O)OCCCCCCCC(C)C,4.573,-4.252,5.529,-2.275,8.791
Tritolyl phosphate,1330-78-5,Cc1ccccc1O[P](=O)(Oc2ccccc2C)Oc3ccccc3C,Cc1ccccc1OP(=O)(Oc1ccccc1C)Oc1ccccc1C,4.037,-5.5710000000000015,5.595,-5.311,4.22
Diisooctyl adipate,1330-86-5,CC(C)CCCCCOC(=O)CCCCC(=O)OCCCCCC(C)C,CC(C)CCCCCOC(=O)CCCCC(=O)OCCCCCC(C)C,5.4,-4.628,6.002999999999999,-2.582,7.755
Iron oxide,1332-37-2,[O--].[O--].[O--].[O--].[Fe++].[Fe+3].[Fe+3],[Fe+2].[Fe+3].[Fe+3].[O-2].[O-2].[O-2].[O-2],1.5219999999999998,-1.443,1.464,-4.388,5.686
Dicopper chloride trihydroxide,1332-65-6,[OH-].[OH-].[OH-].[Cl-].[Cu++].[Cu++],[Cl-].[Cu+2].[Cu+2].[OH-].[OH-].[OH-],1.102,-1.611,1.711,-3.807,19.215
Toluenesulfonamide,1333-07-9,Cc1ccccc1[S](N)(=O)=O,Cc1ccccc1S(N)(=O)=O,0.5329999999999999,-1.5430000000000001,0.63,-10.927,8.924
"Phenol, (hydroxyphenyl)methyl-",1333-16-0,Oc1ccccc1Cc2ccccc2O,Oc1ccccc1Cc1ccccc1O,2.6910000000000003,-3.319,2.821,-7.961,9.488
"Benzenesulfonic acid, hydroxy-",1333-39-7,Oc1ccccc1[S](O)(=O)=O,O=S(=O)(O)c1ccccc1O,1.091,-0.9540000000000001,-2.447,-12.911,3.45
Hydrogen,1333-74-0,[H],[H],1.402,-1.6159999999999999,2.891,-3.634,3.578
Chromium trioxide,1333-82-0,O=[Cr](=O)=O,O=[Cr](=O)=O,-6.709,1.598,-3.096,-9.024,1.799
sodium hydrogendifluoride,1333-83-1,[H+].[F-].[F-].[Na+],[F-].[F-].[H+].[Na+],0.6629999999999999,-2.016,1.878,-2.965,0.443
"Ionone, methyl-",1335-46-2,CCC(=O)/C=C/C1C(=CCCC1(C)C)C,CCC(=O)/C=C/C1C(C)=CCCC1(C)C,4.059,-3.511,4.372,-4.045,9.616
Ammonium hydroxide,1336-21-6,[NH4+].[OH-],[NH4+].[OH-],-0.957,-1.07,-0.275,-2.8110000000000004,20.935
"2-Butanone, peroxide",1338-23-4,CCC(C)(OO)OOC(C)(CC)OO,CCC(C)(OO)OOC(C)(CC)OO,1.026,-0.799,1.891,-10.149,13.234
Naphthenic acids,1338-24-5,CCC1CCC(CCC(O)=O)C1,CCC1CCC(CCC(=O)O)C1,1.431,-2.7439999999999998,2.42,-3.094,6.016
"Sorbitan, monododecanoate",1338-39-2,CCCCCCCCCCCC(=O)OC[C@@H](O)C1OC[C@H](O)[C@H]1O,CCCCCCCCCCCC(=O)OC[C@@H](O)C1OC[C@H](O)[C@H]1O,2.253,-2.641,3.269,-10.386,6.667
"Sorbitan, monooctadecanoate",1338-41-6,CCCCCCCCCCCCCCCCCC(=O)OCC(O)[C@H]1OC[C@@H](O)[C@@H]1O,CCCCCCCCCCCCCCCCCC(=O)OCC(O)[C@H]1OC[C@@H](O)[C@@H]1O,3.212,-3.5860000000000003,5.329,-8.665,6.846
Sorbitan monooleate,1338-43-8,CCCCCCCC\C=C/CCCCCCCC(=O)OCC(O)[C@H]1OC[C@@H](O)[C@@H]1O,CCCCCCCC/C=C\CCCCCCCC(=O)OCC(O)[C@H]1OC[C@@H](O)[C@@H]1O,3.013,-3.2689999999999997,4.77,-9.004,5.781
Ammonium hydrogendifluoride  ((NH4)(HF2)),1341-49-7,[H+].[NH4+].[F-].[F-],[F-].[F-].[H+].[NH4+],0.115,-1.7380000000000002,1.392,-2.334,4.506
"Silicic acid, aluminium sodium salt",1344-00-9,[Na+].[Al+3].[O-][Si]([O-])=O.[O-][Si]([O-])=O,O=[Si]([O-])[O-].O=[Si]([O-])[O-].[Al+3].[Na+],-1.982,-0.39799999999999996,0.277,-4.931,12.115
Sodium sulfide(Na2(Sx)),1344-08-7,[Na+].S,S.[Na+],2.289,-1.6340000000000001,1.807,-3.662,-6.066
Sodium silicate,1344-09-8,[Na+].[Na+].[Na+].[Na+].[O-][Si]([O-])([O-])[O-],[Na+].[Na+].[Na+].[Na+].[O-][Si]([O-])([O-])[O-],0.115,-1.1740000000000002,0.816,-6.209,-3.229
Manganese oxide,1344-43-0,O=[Mn],O=[Mn],-0.929,-0.0,-1.0490000000000002,-4.987,-2.201
"Silicic acid, calcium salt",1344-95-2,[Ca++].[Ca++].[O-][Si]([O-])([O-])[O-],[Ca+2].[Ca+2].[O-][Si]([O-])([O-])[O-],0.7959999999999999,-0.9259999999999999,1.261,-6.792000000000001,13.833
Antimony sulphide,1345-04-6,S=[Sb],S=[Sb],0.5820000000000001,-0.8,1.195,-3.133,-4.523
Iron(II) oxide,1345-25-1,O=[Fe],O=[Fe],-0.395,0.35100000000000003,-0.726,-5.348,-0.222
Tannins,1401-55-4,Oc1cc(cc(O)c1O)C(=O)Oc2cc(cc(O)c2O)C(=O)OCC3OC(OC(=O)c4cc(O)c(O)c(OC(=O)c5cc(O)c(O)c(O)c5)c4)C(OC(=O)c6cc(O)c(O)c(OC(=O)c7cc(O)c(O)c(O)c7)c6)C(OC(=O)c8cc(O)c(O)c(OC(=O)c9cc(O)c(O)c(O)c9)c8)C3OC(=O)c%10cc(O)c(O)c(OC(=O)c%11cc(O)c(O)c(O)c%11)c%10,O=C(OCC1OC(OC(=O)c2cc(O)c(O)c(OC(=O)c3cc(O)c(O)c(O)c3)c2)C(OC(=O)c2cc(O)c(O)c(OC(=O)c3cc(O)c(O)c(O)c3)c2)C(OC(=O)c2cc(O)c(O)c(OC(=O)c3cc(O)c(O)c(O)c3)c2)C1OC(=O)c1cc(O)c(O)c(OC(=O)c2cc(O)c(O)c(O)c2)c1)c1cc(O)c(O)c(OC(=O)c2cc(O)c(O)c(O)c2)c1,1.266,-4.294,2.747,-13.296,6.405
"Tylosin, [R-(R*,R*)]-2,3-dihydroxybutanedioate (salt)",1405-54-5,CC[C@H]1OC(=O)C[C@@H](O)[C@H](C)C(O[C@@H]2O[C@H](C)[C@@H](O[C@H]3C[C@@](C)(O)[C@@H](O)[C@H](C)O3)[C@@H]([C@H]2O)N(C)C)[C@@H](CC=O)C[C@@H](C)C(=O)/C=C/C(=C/C1CO[C@@H]4O[C@H](C)[C@@H](O)[C@@H](OC)[C@H]4OC)C.O[C@H]([C@@H](O)C(O)=O)C(O)=O,CC[C@H]1OC(=O)C[C@@H](O)[C@H](C)C(O[C@@H]2O[C@H](C)[C@@H](O[C@H]3C[C@@](C)(O)[C@@H](O)[C@H](C)O3)[C@H](N(C)C)[C@H]2O)[C@@H](CC=O)C[C@@H](C)C(=O)/C=C/C(C)=C/C1CO[C@@H]1O[C@H](C)[C@@H](O)[C@@H](OC)[C@H]1OC.O=C(O)[C@H](O)[C@@H](O)C(=O)O,-1.193,-1.256,-0.162,-13.345,4.853
"Ethane, 1,1,1-trimethoxy-",1445-45-0,COC(C)(OC)OC,COC(C)(OC)OC,0.354,-0.518,0.534,-3.716,11.563
Dimethyl isophthalate,1459-93-4,COC(=O)c1cccc(c1)C(=O)OC,COC(=O)c1cccc(C(=O)OC)c1,2.728,-2.908,2.361,-6.891,0.928
"Stannane, tributylchloro-",1461-22-9,CCCC[Sn](Cl)(CCCC)CCCC,CCCC[Sn](Cl)(CCCC)CCCC,5.479,-4.8919999999999995,5.874,-0.6970000000000001,5.716