chemical_name,cas,smiles,canonical_smiles,log_p,log_s,kow,water-energy,pka
"1,4-Dicyanobutane",111-69-3,N#CCCCCC#N,N#CCCCCC#N,-0.471,-1.202,-0.354,-6.13,19.268
Heptanal,111-71-7,CCCCCCC=O,CCCCCCC=O,3.813,-2.063,2.521,-2.2,7.77
"Ethanol, 2-butoxy-",111-76-2,CCCCOCCO,CCCCOCCO,1.084,-0.753,0.611,-6.047000000000001,13.356
"Ethanol, 2-(2-methoxyethoxy)-",111-77-3,COCCOCCO,COCCOCCO,-0.654,0.055,-1.166,-7.787999999999999,14.774
"1,5-Cyclooctadiene",111-78-4,C1CC=CCCC=C1,C1=CCCC=CCC1,2.495,-1.8530000000000002,4.046,0.361,2.007
Methyl laurate,111-82-0,CCCCCCCCCCCC(=O)OC,CCCCCCCCCCCC(=O)OC,4.927,-3.98,5.691,-1.827,6.399
Nonane,111-84-2,CCCCCCCCC,CCCCCCCCC,5.143,-3.7,5.267,1.521,5.848
"Octane, 1-chloro-",111-85-3,CCCCCCCCCl,CCCCCCCCCl,5.434,-3.693,4.643,0.061,8.619
1-Octanamine,111-86-4,CCCCCCCCN,CCCCCCCCN,-0.111,-3.092,2.2840000000000003,-2.6919999999999997,10.558
1-Octanol,111-87-5,CCCCCCCCO,CCCCCCCCO,2.958,-2.326,3.06,-3.178,7.436
1-Octanethiol,111-88-6,CCCCCCCCS,CCCCCCCCS,3.876,-3.37,4.563,-1.3519999999999999,9.723
"Ethanol, 2-(2-ethoxyethoxy)-",111-90-0,CCOCCOCCO,CCOCCOCCO,0.083,-0.261,-0.802,-7.376,14.614
"Methane, bis(2-chloroethoxy)-",111-91-1,ClCCOCOCCCl,ClCCOCOCCCl,3.739,-1.013,1.091,-5.472,16.735
Dibutylamine,111-92-2,CCCCNCCCC,CCCCNCCCC,-0.096,-2.378,2.662,-3.5239999999999996,11.151
"Ether, bis(2-methoxyethyl)-",111-96-6,COCCOCCOC,COCCOCCOC,0.594,-0.376,-0.823,-5.694,15.882
"Propionitrile, 3,3'-thiodi-",111-97-7,N#CCCSCCC#N,N#CCCSCCC#N,-0.085,-1.399,-0.018000000000000002,-6.917999999999999,14.535
"1-Dodecanaminium, N,N,N-trimethyl-, chloride",112-00-5,[Cl-].CCCCCCCCCCCC[N+](C)(C)C,CCCCCCCCCCCC[N+](C)(C)C.[Cl-],0.888,-4.295,1.095,-0.546,10.634
"1-Hexadecanaminium, N,N,N-trimethyl-, chloride",112-02-7,[Cl-].CCCCCCCCCCCCCCCC[N+](C)(C)C,CCCCCCCCCCCCCCCC[N+](C)(C)C.[Cl-],1.823,-4.902,2.719,-0.47700000000000004,10.415
"1-Octadecanaminium, N,N,N-trimethyl-, chloride",112-03-8,[Cl-].CCCCCCCCCCCCCCCCCC[N+](C)(C)C,CCCCCCCCCCCCCCCCCC[N+](C)(C)C.[Cl-],2.196,-5.122000000000001,3.544,-0.452,10.278
Nonanoic acid,112-05-0,CCCCCCCCC(O)=O,CCCCCCCCC(=O)O,1.314,-2.496,2.867,-4.306,4.666
2-Butoxyethyl acetate,112-07-2,CCCCOCCOC(C)=O,CCCCOCCOC(C)=O,2.2230000000000003,-1.51,1.413,-4.595,12.859
"9-Octadecenoic acid (9Z)-, 1-methylethyl ester",112-11-8,CCCCCCCC\C=C/CCCCCCCC(=O)OC(C)C,CCCCCCCC/C=C\CCCCCCCC(=O)OC(C)C,5.41,-4.803999999999999,7.903,-1.923,7.433
2-(2-Ethoxyethoxy)ethyl acetate,112-15-2,CCOCCOCCOC(C)=O,CCOCCOCCOC(C)=O,0.957,-0.9590000000000001,0.011,-5.898,14.46
lauroyl chloride,112-16-3,CCCCCCCCCCCC(Cl)=O,CCCCCCCCCCCC(=O)Cl,4.865,-4.07,6.234,-1.808,7.375
"1-Dodecanamine, N,N-dimethyl-",112-18-5,CCCCCCCCCCCCN(C)C,CCCCCCCCCCCCN(C)C,2.133,-4.253,5.379,-1.8130000000000002,10.143
Triethylene tetramine,112-24-3,NCCNCCNCCN,NCCNCCNCCN,-3.4530000000000003,-0.993,-2.655,-11.061,10.415
"Ethanol, 2-(hexyloxy)-",112-25-4,CCCCCCOCCO,CCCCCCOCCO,2.08,-1.581,1.853,-5.119,10.793
Triethylene glycol,112-27-6,OCCOCCOCCO,OCCOCCOCCO,-0.911,0.022000000000000002,-1.7619999999999998,-9.31,13.793
1-Decanol,112-30-1,CCCCCCCCCCO,CCCCCCCCCCO,3.5860000000000003,-3.227,4.147,-2.68,7.634
"Ethanol, 2-(butoxyethoxy)-",112-34-5,CCCCOC(C)OCCO,CCCCOC(C)OCCO,1.153,-1.119,0.8759999999999999,-6.178999999999999,12.869
"Ethanol, 2-(2-(2-methoxyethoxy)ethoxy)-",112-35-6,COCCOCCOCCO,COCCOCCOCCO,-0.208,-0.336,-1.4069999999999998,-7.84,14.884
Methyl hexadecanoate,112-39-0,CCCCCCCCCCCCCCCC(=O)OC,CCCCCCCCCCCCCCCC(=O)OC,5.171,-4.7410000000000005,7.542999999999998,-1.515,6.835
Dodecane,112-40-3,CCCCCCCCCCCC,CCCCCCCCCCCC,5.331,-4.685,7.002999999999999,1.115,6.578
1-Dodecene,112-41-4,CCCCCCCCCCC=C,C=CCCCCCCCCCC,5.206,-4.6419999999999995,6.9910000000000005,0.7290000000000001,6.38
1-Undecanol,112-42-5,CCCCCCCCCCCO,CCCCCCCCCCCO,3.818,-3.591,4.642,-2.476,7.703
"Triethylene glycol, monoethyl ether",112-50-5,CCOCCOCCOCCO,CCOCCOCCOCCO,0.414,-0.5579999999999999,-0.987,-7.525,14.788
"Dodecane, 1-chloro-",112-52-7,CCCCCCCCCCCCCl,CCCCCCCCCCCCCl,5.556,-4.901,7.0760000000000005,-0.008,8.579
1-Dodecanol,112-53-8,CCCCCCCCCCCCO,CCCCCCCCCCCCO,4.018,-3.9010000000000002,5.194,-2.3,7.765
1-Dodecanethiol,112-55-0,CCCCCCCCCCCCS,CCCCCCCCCCCCS,4.577,-4.678,6.99,-0.99,9.497
Tetraethylenepentamine,112-57-2,NCCNCCNCCNCCN,NCCNCCNCCNCCN,-2.984,-1.209,-2.7110000000000003,-11.205,10.384
"Ethanol, 2-[2-(hexyloxy)ethoxy]-",112-59-4,CCCCCCOCCOCCO,CCCCCCOCCOCCO,2.187,-1.6740000000000002,1.443,-5.813,11.351
Tetraethylene glycol,112-60-7,OCCOCCOCCOCCO,OCCOCCOCCOCCO,-0.57,-0.308,-1.862,-9.05,14.114
Methyl oleate,112-62-9,CCCCCCCC\C=C/CCCCCCCC(=O)OC,CCCCCCCC/C=C\CCCCCCCC(=O)OC,4.995,-4.546,7.397,-2.0180000000000002,5.559
"1-Hexadecylamine, N,N-dimethyl-",112-69-6,CCCCCCCCCCCCCCCCN(C)C,CCCCCCCCCCCCCCCCN(C)C,3.0610000000000004,-4.958,7.146,-1.469,10.365
1-Tridecanol,112-70-9,CCCCCCCCCCCCCO,CCCCCCCCCCCCCO,4.183,-4.169,5.78,-2.149,7.818
1-Tetradecanol,112-72-1,CCCCCCCCCCCCCCO,CCCCCCCCCCCCCCO,4.3210000000000015,-4.401,6.319,-2.019,7.866
"Tetradecylamine, N,N-dimethyl-",112-75-4,CCCCCCCCCCCCCCN(C)C,CCCCCCCCCCCCCCN(C)C,2.649,-4.646,6.365,-1.621,10.259
Octadecanoyl chloride,112-76-5,CCCCCCCCCCCCCCCCCC(Cl)=O,CCCCCCCCCCCCCCCCCC(=O)Cl,5.176,-5.132999999999999,8.601,-1.335,7.711
Oleic acid,112-80-1,CCCCCCCC\C=C/CCCCCCCC(O)=O,CCCCCCCC/C=C\CCCCCCCC(=O)O,3.264,-4.292,6.797999999999999,-3.2039999999999997,4.908
"Hexadecane, 1-bromo-",112-82-3,CCCCCCCCCCCCCCCCBr,CCCCCCCCCCCCCCCCBr,5.6179999999999986,-5.68,8.987,-0.124,8.476
"13-Docosenamide, (13Z)-",112-84-5,CCCCCCCC\C=C/CCCCCCCCCCCC(N)=O,CCCCCCCC/C=C\CCCCCCCCCCCC(N)=O,4.381,-4.783,7.404,-3.236,6.821
Docosanoic acid,112-85-6,CCCCCCCCCCCCCCCCCCCCCC(O)=O,CCCCCCCCCCCCCCCCCCCCCC(=O)O,4.128,-5.255,8.797,-2.191,5.57
"13-Docosenoic acid, (13Z)-",112-86-7,CCCCCCCC\C=C/CCCCCCCCCCCC(O)=O,CCCCCCCC/C=C\CCCCCCCCCCCC(=O)O,3.846,-4.842,8.097000000000001,-2.7430000000000003,5.138
1-Octadecene,112-88-9,CCCCCCCCCCCCCCCCC=C,C=CCCCCCCCCCCCCCCCC,5.4110000000000005,-5.622000000000001,9.398,0.425,7.088
"9-Octadecen-1-amine, (9Z)-",112-90-3,CCCCCCCC\C=C/CCCCCCCCN,CCCCCCCC/C=C\CCCCCCCCN,2.272,-4.938,6.148,-2.122,9.499
"9-Octadecenenitrile, (9Z)-",112-91-4,CCCCCCCC\C=C/CCCCCCCC#N,CCCCCCCC/C=C\CCCCCCCC#N,4.47,-4.72,7.085,-1.954,8.188
1-Octadecanol,112-92-5,CCCCCCCCCCCCCCCCCCO,CCCCCCCCCCCCCCCCCCO,4.694,-5.08,7.9289999999999985,-1.636,7.998
"Potassium 3,3-dimethyl-7-oxo-6-(phenylacetamido)-4-thia-1-azbicyclo[3.2.0]heptane-2-carboxylate",113-98-4,[K+].CN(C)CCCN1c2ccccc2Sc3ccc(Cl)cc13.CC4(C)S[C@@H]5[C@H](NC(=O)Cc6ccccc6)C(=O)N5[C@H]4C([O-])=O,CC1(C)S[C@@H]2[C@H](NC(=O)Cc3ccccc3)C(=O)N2[C@H]1C(=O)[O-].CN(C)CCCN1c2ccccc2Sc2ccc(Cl)cc21.[K+],3.22,-4.133,3.786,-9.092,6.924
Propoxur,114-26-1,CNC(=O)Oc1ccccc1OC(C)C,CNC(=O)Oc1ccccc1OC(C)C,3.056,-3.2710000000000004,1.571,-6.755,4.13
1-Propene,115-07-1,CC=C,C=CC,2.336,-1.218,1.778,1.635,7.409
Dimethyl ether,115-10-6,COC,COC,-0.233,0.016,0.097,-1.6280000000000001,9.897
"Propene, 2-methyl-",115-11-7,CC(C)=C,C=C(C)C,2.227,-1.645,2.546,0.38,14.917
"3-Buten-2-ol, 2-methyl-",115-18-4,CC(C)(O)C=C,C=CC(C)(C)O,0.353,-0.96,0.841,-5.7379999999999995,11.468
"3-Butyn-2-ol, 2-methyl-",115-19-5,CC(C)(O)C#C,C#CC(C)(C)O,0.479,-0.5710000000000001,0.219,-6.446000000000001,14.379
"Silane, trichloroethyl-",115-21-9,[SiH3]CC(Cl)(Cl)Cl,[SiH3]CC(Cl)(Cl)Cl,3.4130000000000003,-2.377,2.543,-1.508,16.283
"Cyclobutane, octafluoro-",115-25-3,FC1(F)C(F)(F)C(F)(F)C1(F)F,FC1(F)C(F)(F)C(F)(F)C1(F)F,3.305,-3.193,3.108,3.237,10.403
"5-Norbornene-2,3-dicarboxylic anhydride,",115-27-5,ClC1=C(Cl)C2(Cl)C3C(C(=O)OC3=O)C1(Cl)C2(Cl)Cl,O=C1OC(=O)C2C1C1(Cl)C(Cl)=C(Cl)C2(Cl)C1(Cl)Cl,2.404,-4.58,3.788,-3.5789999999999997,4.946
Endosulfan,115-29-7,ClC1=C(Cl)C2(Cl)C3CO[S](=O)OCC3C1(Cl)C2(Cl)Cl,O=S1OCC2C(CO1)C1(Cl)C(Cl)=C(Cl)C2(Cl)C1(Cl)Cl,3.707,-3.662,4.02,-3.261,6.089
Dicofol,115-32-2,OC(c1ccc(Cl)cc1)(c2ccc(Cl)cc2)C(Cl)(Cl)Cl,OC(c1ccc(Cl)cc1)(c1ccc(Cl)cc1)C(Cl)(Cl)Cl,4.311,-6.101,5.252999999999999,-7.224,8.919
Pentaerythritol,115-77-5,OCC(CO)(CO)CO,OCC(CO)(CO)CO,-0.628,0.122,-2.125,-15.890999999999998,9.688
Neopentanetetrayl stearate,115-83-3,CCCCCCCCCCCCCCCCCC(=O)OCC(COC(=O)CCCCCCCCCCCCCCCCC)(COC(=O)CCCCCCCCCCCCCCCCC)COC(=O)CCCCCCCCCCCCCCCCC,CCCCCCCCCCCCCCCCCC(=O)OCC(COC(=O)CCCCCCCCCCCCCCCCC)(COC(=O)CCCCCCCCCCCCCCCCC)COC(=O)CCCCCCCCCCCCCCCCC,5.812,-6.204,10.24,-2.377,6.985
Triphenyl phosphate,115-86-6,O=[P](Oc1ccccc1)(Oc2ccccc2)Oc3ccccc3,O=P(Oc1ccccc1)(Oc1ccccc1)Oc1ccccc1,3.676,-5.36,4.152,-5.749,3.739
Linalylacetate,115-95-7,CC(C)=CCCC(C)(CC([O-])=O)C=C,C=CC(C)(CCC=C(C)C)CC(=O)[O-],3.565,-3.721,5.015,-2.9389999999999996,10.371
"Ethanol, 2-chloro-, phosphate (3:1)",115-96-8,OCCCl.OCCCl.OCCCl.O[P](O)(O)=O,O=P(O)(O)O.OCCCl.OCCCl.OCCCl,0.19,0.7490000000000001,-0.999,-10.634,6.149
"Cyclohexanol, 3,3,5-trimethyl-",116-02-9,CC1CC(O)CC(C)(C)C1,CC1CC(O)CC(C)(C)C1,2.05,-2.23,2.397,-2.804,11.128
"Ethene, tetrafluoro-",116-14-3,FC(F)=C(F)F,FC(F)=C(F)F,2.755,-1.5519999999999998,0.853,2.356,3.519
"1-Propene, hexafluoro-",116-15-4,FC(F)=C(F)C(F)(F)F,FC(F)=C(F)C(F)(F)F,3.714,-3.12,1.865,2.752,8.228
"1,1'-isopropylidenebis(p-phenyleneoxy)dipropan-2-ol",116-37-0,CC(O)COc1ccc(cc1)C(C)(C)c2ccc(OCC(C)O)cc2,CC(O)COc1ccc(C(C)(C)c2ccc(OCC(C)O)cc2)cc1,3.505,-4.248,3.707,-7.1579999999999995,6.6
"Butanoic acid, 2-methyl-",116-53-0,CCC(C)C(O)=O,CCC(C)C(=O)O,-1.392,-0.9890000000000001,1.3119999999999998,-6.386,5.329
"Phthalic anhydride, tetrachloro-",117-08-8,Clc1c(Cl)c(Cl)c2C(=O)OC(=O)c2c1Cl,O=C1OC(=O)c2c(Cl)c(Cl)c(Cl)c(Cl)c21,3.236,-5.541,4.044,-6.474,5.718
"Anthraquinone, 2-amino-",117-79-3,Nc1ccc2C(=O)c3ccccc3C(=O)c2c1,Nc1ccc2c(c1)C(=O)c1ccccc1C2=O,1.786,-3.571,2.617,-10.394,7.572
Bis(2-ethylhexyl) phthalate,117-81-7,CCCCC(CC)COC(=O)c1ccccc1C(=O)OCC(CC)CCCC,CCCCC(CC)COC(=O)c1ccccc1C(=O)OCC(CC)CCCC,5.268,-5.8020000000000005,7.279,-3.403,5.851
Dioctyl phthalate,117-84-0,CCCCCCCCOC(=O)c1ccccc1C(=O)OCCCCCCCC,CCCCCCCCOC(=O)c1ccccc1C(=O)OCCCCCCCC,5.159,-5.875,7.824,-3.885,5.922
"1,3-Naphthalenedisulfonic acid, 6-amino-",118-33-2,Nc1ccc2c(c1)cc(cc2[S](O)(=O)=O)[S](O)(=O)=O,Nc1ccc2c(S(=O)(=O)O)cc(S(=O)(=O)O)cc2c1,0.159,-1.7109999999999999,-3.732,-14.265,-3.35
"2H-3,1-Benzoxazine-2,4(1H)-dione",118-48-9,O=C1Nc2ccccc2C(=O)O1,O=c1[nH]c2ccccc2c(=O)o1,0.596,-2.122,0.294,-13.015999999999998,5.678
"2,4-Imidazolidinedione, 1,3-dichloro-5,5-dimethyl-",118-52-5,CC1(C)N(Cl)C(=O)N(Cl)C1=O,CC1(C)C(=O)N(Cl)C(=O)N1Cl,-0.826,-1.159,0.992,-10.588,3.55
Benzyl salicylate,118-58-1,Oc1ccccc1C(=O)OCc2ccccc2,O=C(OCc1ccccc1)c1ccccc1O,3.488,-3.755,3.896,-6.987,7.813
"2,6-Dichlorotoluene",118-69-4,Cc1c(Cl)cccc1Cl,Cc1c(Cl)cccc1Cl,4.476,-3.7510000000000003,4.133,-1.446,6.738
"Benzene, hexachloro-",118-74-1,Clc1c(Cl)c(Cl)c(Cl)c(Cl)c1Cl,Clc1c(Cl)c(Cl)c(Cl)c(Cl)c1Cl,5.2029999999999985,-6.436,5.79,-3.177,5.775
"Phenol, 2,4,6-tribromo-",118-79-6,Oc1c(Br)cc(Br)cc1Br,Oc1c(Br)cc(Br)cc1Br,4.142,-4.863,3.958,-6.421,6.646
"2,2',6,6'-tetra-tert-butyl-4,4'-methylenediphenol",118-82-1,CC(C)(C)c1cc(Cc2cc(c(O)c(c2)C(C)(C)C)C(C)(C)C)cc(c1O)C(C)(C)C,CC(C)(C)c1cc(Cc2cc(C(C)(C)C)c(O)c(C(C)(C)C)c2)cc(C(C)(C)C)c1O,5.6610000000000005,-5.655,5.521,-4.545,10.794
"Benzene, 2-methyl-1,3,5-trinitro-",118-96-7,Cc1c(cc(cc1[N+]([O-])=O)[N+]([O-])=O)[N+]([O-])=O,Cc1c([N+](=O)[O-])cc([N+](=O)[O-])cc1[N+](=O)[O-],1.138,-2.9130000000000003,1.729,-6.419,1.013
Ditridecyl phthalate,119-06-2,CCCCCCCCCCCCCOC(=O)c1ccccc1C(=O)OCCCCCCCCCCCCC,CCCCCCCCCCCCCOC(=O)c1ccccc1C(=O)OCCCCCCCCCCCCC,5.348,-6.3370000000000015,9.722,-2.967,6.751
Decyl octyl phthalate,119-07-3,CCCCCCCCCCOC(=O)c1ccccc1C(=O)OCCCCCCCC,CCCCCCCCCCOC(=O)c1ccccc1C(=O)OCCCCCCCC,5.215,-6.004,8.312999999999999,-3.656,6.151
Methyl salicylate,119-36-8,COC(=O)c1ccccc1O,COC(=O)c1ccccc1O,2.345,-2.426,2.412,-8.201,7.566
"p-Cresol, 6,6'-di-tert-butyl-2,2'-methylenedi-",119-47-1,Cc1cc(Cc2cc(C)cc(c2O)C(C)(C)C)c(O)c(c1)C(C)(C)C,Cc1cc(Cc2cc(C)cc(C(C)(C)C)c2O)c(O)c(C(C)(C)C)c1,5.056,-5.343,5.506,-5.4239999999999995,10.025
Benzoin,119-53-9,OC(c1ccccc1)C(=O)c2ccccc2,O=C(c1ccccc1)C(O)c1ccccc1,1.866,-3.048,2.106,-9.193,4.605
Benzophenone,119-61-9,O=C(c1ccccc1)c2ccccc2,O=C(c1ccccc1)c1ccccc1,3.408,-3.9410000000000003,3.173,-5.705,6.417
"Naphthalene, 1,2,3,4-tetrahydro-",119-64-2,C1CCc2ccccc2C1,c1ccc2c(c1)CCCC2,3.813,-3.248,4.099,-2.722,6.757
Anthracene,120-12-7,c1ccc2cc3ccccc3cc2c1,c1ccc2cc3ccccc3cc2c1,3.928,-4.468,4.601,-4.147,3.339
Naphthalene-2-sulphonic acid,120-18-3,O[S](=O)(=O)c1ccc2ccccc2c1,O=S(=O)(O)c1ccc2ccccc2c1,1.5119999999999998,-2.395,-0.5710000000000001,-10.515999999999998,-5.361
Clorofene,120-32-1,Oc1ccc(Cl)cc1Cc2ccccc2,Oc1ccc(Cl)cc1Cc1ccccc1,3.846,-4.148,4.308,-5.527,8.728
"Propanoic acid, 2-(2,4-dichlorophenoxy)-",120-36-5,CC(Oc1ccc(Cl)cc1Cl)C(O)=O,CC(Oc1ccc(Cl)cc1Cl)C(=O)O,-1.108,-3.556,3.03,-7.057,4.261
"Dodecanamide, N,N-bis(2-hydroxyethyl)-",120-40-1,CCCCCCCCCCCC(=O)N(CCO)CCO,CCCCCCCCCCCC(=O)N(CCO)CCO,3.077,-3.373,3.2030000000000003,-7.252999999999999,6.965
Benzyl benzoate,120-51-4,O=C(OCc1ccccc1)c2ccccc2,O=C(OCc1ccccc1)c1ccccc1,3.863,-3.8360000000000003,3.626,-4.808,3.04
"Diethylene glycol, dibenzoate",120-55-8,OCCOCCO.OC(=O)c1ccccc1.OC(=O)c2ccccc2,O=C(O)c1ccccc1.O=C(O)c1ccccc1.OCCOCCO,-0.71,-1.105,0.612,-9.029,4.805
"Ethanol, 2,2'-[1,2-ethanediylbis(oxy)]bis-, dibenzoate",120-56-9,OCCOCCOCCO.OC(=O)c1ccccc1.OC(=O)c2ccccc2,O=C(O)c1ccccc1.O=C(O)c1ccccc1.OCCOCCOCCO,-0.5870000000000001,-1.22,0.488,-8.95,5.045
Dimethyl terephthalate,120-61-6,COC(=O)c1ccc(cc1)C(=O)OC,COC(=O)c1ccc(C(=O)OC)cc1,2.844,-2.917,2.541,-7.176,0.485
Benzothiazole disulfide,120-78-5,S=[S]1(=S)C=Nc2ccccc12,S=S1(=S)C=Nc2ccccc21,1.861,-3.335,3.158,-7.284,2.08
Pyrocatechol,120-80-9,Oc1ccccc1O,Oc1ccccc1O,1.18,-1.584,1.143,-10.184,8.462
"Benzene, 1,2,4-trichloro-",120-82-1,Clc1ccc(Cl)c(Cl)c1,Clc1ccc(Cl)c(Cl)c1,4.7010000000000005,-4.356,3.968,-1.6130000000000002,6.802
"Phenol, 2,4-dichloro-",120-83-2,Oc1ccc(Cl)cc1Cl,Oc1ccc(Cl)cc1Cl,3.4960000000000004,-3.153,3.159,-5.966,7.518
Cyclopentanone,120-92-3,O=C1CCCC1,O=C1CCCC1,1.571,-0.805,0.324,-5.667999999999999,9.578
"Phenol, 2,4-di-tert-pentyl-",120-95-6,CCC(C)(C)c1ccc(O)c(c1)C(C)(C)CC,CCC(C)(C)c1ccc(O)c(C(C)(C)CC)c1,4.8039999999999985,-5.1370000000000005,5.841,-3.15,8.921
"o-Toluenesulfonic acid, 5-nitro-",121-03-9,Cc1cc(ccc1[S](O)(=O)=O)[N+]([O-])=O,Cc1cc([N+](=O)[O-])ccc1S(=O)(=O)O,1.061,-1.746,-1.19,-10.407,-3.784
"2,4-Dinitrotoluene",121-14-2,Cc1ccc(cc1[N+]([O-])=O)[N+]([O-])=O,Cc1ccc([N+](=O)[O-])cc1[N+](=O)[O-],2.2230000000000003,-2.7060000000000004,2.341,-5.905,4.222
"4-Amino-6-chlorobenzene-1,3-disulphonamide",121-30-2,Nc1cc(Cl)c(cc1[S](N)(=O)=O)[S](N)(=O)=O,Nc1cc(Cl)c(S(N)(=O)=O)cc1S(N)(=O)=O,-0.018000000000000002,-1.219,-0.414,-15.505,6.792
"Benzaldehyde, 3-ethoxy-4-hydroxy-",121-32-4,CCOc1cc(C=O)ccc1O,CCOc1cc(C=O)ccc1O,1.929,-2.5780000000000003,1.318,-8.324,6.177
Vanillin,121-33-5,COc1cc(C=O)ccc1O,COc1cc(C=O)ccc1O,0.8690000000000001,-2.02,0.977,-9.046,5.871
Trimethyl borate,121-43-7,COB(OC)OC,COB(OC)OC,-0.458,-0.27699999999999997,0.248,-5.006,4.53
Triethylamine,121-44-8,CCN(CC)CC,CCN(CC)CC,-2.994,-1.411,1.374,-3.272,10.961
Trimethyl phosphite,121-45-9,COP(OC)OC,COP(OC)OC,-0.633,-0.209,-0.611,-7.225,2.202
"Benzenesulfonic acid, 4-amino-",121-57-3,Nc1ccc(cc1)[S](O)(=O)=O,Nc1ccc(S(=O)(=O)O)cc1,0.071,-0.795,-2.962,-13.673,-0.898
"N,N-Dimethylaniline",121-69-7,CN(C)c1ccccc1,CN(C)c1ccccc1,2.506,-2.135,2.249,-4.414,5.341
"Benzene, 1-chloro-3-nitro-",121-73-3,[O-][N+](=O)c1cccc(Cl)c1,O=[N+]([O-])c1cccc(Cl)c1,3.927,-2.8689999999999998,2.603,-4.436,4.328
Malathion,121-75-5,CCOC(=O)CC(S[P](=S)(OC)OC)C(=O)OCC,CCOC(=O)CC(SP(=S)(OC)OC)C(=O)OCC,2.085,-3.625,2.376,-6.335,4.122
"1,3,5-Triazine, hexahydro-1,3,5-trinitro-",121-82-4,[O-][N+](=O)N1CN(CN(C1)[N+]([O-])=O)[N+]([O-])=O,O=[N+]([O-])N1CN([N+](=O)[O-])CN([N+](=O)[O-])C1,-1.887,-1.114,-0.035,-12.328,5.978
"Toluene, 2-chloro-4-nitro-",121-86-8,Cc1ccc(cc1Cl)[N+]([O-])=O,Cc1ccc([N+](=O)[O-])cc1Cl,4.184,-3.222,3.283,-4.566,3.543
"Aniline, 2-chloro-4-nitro-",121-87-9,Nc1ccc(cc1Cl)[N+]([O-])=O,Nc1ccc([N+](=O)[O-])cc1Cl,2.187,-2.3930000000000002,2.181,-8.365,0.437
Isophthalic acid,121-91-5,OC(=O)c1cccc(c1)C(O)=O,O=C(O)c1cccc(C(=O)O)c1,-1.926,-1.79,1.675,-11.454,3.31
4-chlorobenzoyl chloride,122-01-0,ClC(=O)c1ccc(Cl)cc1,O=C(Cl)c1ccc(Cl)cc1,3.602,-3.2439999999999998,2.987,-4.627,4.748
"Benzenemethanaminium, N,N-dimethyl-N-octadecyl-, chloride",122-19-0,[Cl-].CCCCCCCCCCCCCCCCCC[N+](C)(C)Cc1ccccc1,CCCCCCCCCCCCCCCCCC[N+](C)(C)Cc1ccccc1.[Cl-],2.914,-5.731,4.642,-1.386,7.843
"2-Propanol, 1,1',1''-nitrilotri-",122-20-3,CC(O)CN(CC(C)O)CC(C)O,CC(O)CN(CC(C)O)CC(C)O,-1.179,-0.581,-0.552,-10.987,8.711
"9-Octadecenoic acid (9Z)-, 1,2,3-propanetriyl ester",122-32-7,CCCCCCCC\C=C/CCCCCCCC(=O)OCC(COC(=O)CCCCCCC\C=C/CCCCCCCC)OC(=O)CCCCCCC\C=C/CCCCCCCC,CCCCCCCC/C=C\CCCCCCCC(=O)OCC(COC(=O)CCCCCCC/C=C\CCCCCCCC)OC(=O)CCCCCCC/C=C\CCCCCCCC,5.323,-5.603,9.465,-2.77,6.718
Simazine,122-34-9,CCNc1nc(Cl)nc(NCC)n1,CCNc1nc(Cl)nc(NCC)n1,2.344,-2.59,1.987,-9.539,2.599
Diphenylamine,122-39-4,N(c1ccccc1)c2ccccc2,c1ccc(Nc2ccccc2)cc1,3.367,-3.78,3.689,-6.269,0.941
"Heptanal, 2-(phenylmethylene)-",122-40-7,CCCCCC(C=O)=Cc1ccccc1,CCCCCC(C=O)=Cc1ccccc1,3.745,-4.368,4.215,-3.82,4.573
Triethyl orthoformate,122-51-0,CCOC(OCC)OCC,CCOC(OCC)OCC,2.779,-0.955,0.947,-5.027,14.223
Triethyl phosphite,122-52-1,CCOP(OCC)OCC,CCOP(OCC)OCC,2.938,-1.266,0.396,-6.687,12.863
"Sebacic acid, bis(2-ethylhexyl) ester",122-62-3,CCCCC(CC)COC(=O)CCCCCCCCC(=O)OCC(CC)CCCC,CCCCC(CC)COC(=O)CCCCCCCCC(=O)OCC(CC)CCCC,5.8210000000000015,-4.971,6.957000000000002,-2.138,7.027
"Ethanol, 2-phenoxy-",122-99-6,OCCOc1ccccc1,OCCOc1ccccc1,1.4380000000000002,-2.122,1.296,-6.1739999999999995,6.155
4-Morpholinepropanamine,123-00-2,NCCCN1CCOCC1,NCCCN1CCOCC1,-1.641,-1.034,-1.042,-8.793,7.967
"Benzene, dodecyl-",123-01-3,CCCCCCCCCCCCc1ccccc1,CCCCCCCCCCCCc1ccccc1,4.649,-5.597,8.693,-0.682,6.472
"Hexanal, 2-ethyl-",123-05-7,CCCCC(CC)C=O,CCCCC(C=O)CC,3.6010000000000004,-2.3819999999999997,2.934,-1.5819999999999999,8.064
"Phenol, 4-ethyl-",123-07-9,CCc1ccc(O)cc1,CCc1ccc(O)cc1,3.027,-2.362,2.45,-6.249,10.086
"Benzaldehyde, 4-methoxy-",123-11-5,COc1ccc(C=O)cc1,COc1ccc(C=O)cc1,1.946,-2.219,1.582,-6.105,1.985
"4-Nonanone, 2,6,8-trimethyl-",123-18-2,CC(C)CC(C)CC(=O)CC(C)C,CC(C)CC(=O)CC(C)CC(C)C,5.327000000000001,-3.205,4.508,-1.176,11.266
"Octadecanamide, N,N'-1,2-ethanediylbis[12-hydroxy-",123-26-2,CCCCCCC(O)CCCCCCCCCCC(=O)NCCNC(=O)CCCCCCCCCCC(O)CCCCCC,CCCCCCC(O)CCCCCCCCCCC(=O)NCCNC(=O)CCCCCCCCCCC(O)CCCCCC,3.933,-4.6080000000000005,6.4220000000000015,-5.7379999999999995,7.055
"Propionic acid, 3,3'-thiodi-, didodecyl-",123-28-4,CCCCCCCCCCCCOC(=O)CCSCCC(=O)OCCCCCCCCCCCC,CCCCCCCCCCCCOC(=O)CCSCCC(=O)OCCCCCCCCCCCC,5.559,-5.29,8.118,-2.713,8.739
"Phenol, 4-amino-",123-30-8,Nc1ccc(O)cc1,Nc1ccc(O)cc1,0.499,-1.337,0.171,-11.227,10.198
Hydroquinone,123-31-9,Oc1ccc(O)cc1,Oc1ccc(O)cc1,1.766,-1.554,0.534,-11.210999999999999,8.489
"1,6-Octadiene, 7-methyl-3-methylene-",123-35-3,CC(C)=CCCC(=C)C=C,C=CC(=C)CCC=C(C)C,3.237,-3.51,4.162,-1.358,7.689
Propanal,123-38-6,CCC=O,CCC=O,0.42,-0.419,0.242,-3.279,11.375
"Formamide, N-methyl-",123-39-7,CNC=O,CNC=O,-3.104,0.47100000000000003,-1.1909999999999998,-8.14,-0.357
Diacetone alcohol,123-42-2,CC(=O)CC(C)(C)O,CC(=O)CC(C)(C)O,-0.206,-0.609,-0.317,-7.814,15.125
3-Methylbutan-1-ol,123-51-3,CC(C)CCO,CC(C)CCO,1.237,-1.1540000000000001,1.362,-3.4560000000000004,13.174
"2,4-Pentanedione",123-54-6,CC(=O)CC(C)=O,CC(=O)CC(C)=O,-1.141,-0.198,-0.792,-8.16,9.886
"Propanoic acid, anhydride",123-62-6,CCC(=O)OC(=O)CC,CCC(=O)OC(=O)CC,0.998,-1.037,1.247,-4.717,5.39
n-Butanal,123-72-8,CCCC=O,CCCC=O,1.87,-0.81,0.952,-2.947,7.246
"Pentanoic acid, 4-oxo-",123-76-2,CC(=O)CCC(O)=O,CC(=O)CCC(=O)O,-3.064,-0.063,-0.8370000000000001,-9.271,4.952
Diazenedicarboxamide,123-77-3,NC(=O)N=NC(N)=O,NC(=O)N=NC(N)=O,0.194,0.67,-1.86,-14.765,10.911
Dioctyl adipate,123-79-5,CCCCCCCCOC(=O)CCCCC(=O)OCCCCCCCC,CCCCCCCCOC(=O)CCCCC(=O)OCCCCCCCC,5.485,-4.718,6.352,-2.875,6.667
Butyl acetate,123-86-4,CCCCOC(C)=O,CCCCOC(C)=O,2.605,-1.331,1.519,-2.889,11.7
"1,4-Dioxane",123-91-1,C1COCCO1,C1COCCO1,-0.336,0.47100000000000003,-0.507,-6.037000000000001,14.141