chemical_name,cas,smiles,canonical_smiles,log_p,log_s,kow,water-energy,pka
"Benzene, C10-C16 alkyl derivatives",68648-87-3,CCCCCCCCCCCCCc1ccccc1,CCCCCCCCCCCCCc1ccccc1,4.705,-5.712999999999999,9.025,-0.659,6.578
"Benzene, ethenyl-, polymer with 2-methyl-1,3-butadiene, hydrogenated",68648-89-5,CC(=C)C=C.C=Cc1ccccc1,C=CC(=C)C.C=Cc1ccccc1,1.6,-2.351,2.596,-1.194,5.121
"Phthalic acid, mixed decyl, hexyl & octyl diesters",68648-93-1,CCCCCCO.CCCCCCCCO.CCCCCCCCCCO.OC(=O)c1ccccc1C(O)=O,CCCCCCCCCCO.CCCCCCCCO.CCCCCCO.O=C(O)c1ccccc1C(=O)O,0.795,-2.508,2.508,-5.757000000000001,4.733
"Zinc, dithiophosphate di-C1-14-alkyl esters",68649-42-3,[Zn++].CCCCCCCO[P]([S-])(=S)OCCCCCCC.CCCCCCCO[P]([S-])(=S)OCCCCCCC,CCCCCCCOP(=S)([S-])OCCCCCCC.CCCCCCCOP(=S)([S-])OCCCCCCC.[Zn+2],5.0760000000000005,-4.883,7.122999999999998,-3.258,3.843
"Phosphorodithioic acid, O,O-dioctyl ester, branched",68649-43-4,CC(C)CC(C)CCO[P](S)(=S)OCCC(C)CC(C)C,CC(C)CC(C)CCOP(=S)(S)OCCC(C)CC(C)C,5.19,-4.5360000000000005,7.03,-2.885,5.594
"Ethanol, 2-amino-, reaction products with ammonia, by-products from,phosphonomethylated",68649-44-5,N.NCCO,N.NCCO,-4.5539999999999985,0.16,-0.8170000000000001,-9.382,8.573
"Aromatic hydrocarbons, C8, o-xylene-lean",68650-36-2,Cc1ccc(C)cc1,Cc1ccc(C)cc1,3.965,-3.0189999999999997,3.323,-1.107,2.942
"Phosphoric acid, (1-methylethyl)phenyl phenyl ester",68782-95-6,CC(C)c1ccccc1O[P]([O-])(=O)Oc2ccccc2,CC(C)c1ccccc1OP(=O)([O-])Oc1ccccc1,4.125,-4.921,4.317,-5.222,6.615
"Isooctadecanoic acid, reaction products with tetraethylenepentamine",68784-17-8,CCCCCCCCCCCCCCCCCC(O)=O.NCCNCCNCCNCCN,CCCCCCCCCCCCCCCCCC(=O)O.NCCNCCNCCNCCN,0.14,-3.136,1.504,-6.775,9.723
"Phosphorodithioic acid, mixed O,O-bis(sec-Bu and 1,3-dimethylbutyl)esters",68784-30-5,CC(C)CO[P](S)(=S)OC(C)CC(C)C,CC(C)COP(=S)(S)OC(C)CC(C)C,4.967,-3.7319999999999998,5.188,-4.5760000000000005,4.121
"Phosphorodithioic acid, mixed O,O-bis(sec-Bu and 1,3-dimethylbutyl)esters, zincsalts",68784-31-6,[Zn++].CCC(C)O[P]([S-])(=S)OC(C)CC(C)C.CCC(C)O[P]([S-])(=S)OC(C)CC(C)C,CCC(C)OP(=S)([S-])OC(C)CC(C)C.CCC(C)OP(=S)([S-])OC(C)CC(C)C.[Zn+2],4.688,-4.381,5.439,-3.1210000000000004,9.308
"Phosphorodithioic acid, mixed O,O-bis(2-ethylhexyl and iso-Bu)esters",68784-32-7,CCCCC(CC)CO[P](S)(=S)OCC(C)C,CCCCC(CC)COP(=S)(S)OCC(C)C,5.221,-3.967,6.096,-4.249,3.73
"Phosphorodithioic acid, mixed O,O-bis(hexyl and iso-Bu) esters, zinc salts",68784-34-9,[Zn++].CCCCCCO[P]([S-])(=S)OCC(C)C.CCCCCCO[P]([S-])(=S)OCC(C)C,CCCCCCOP(=S)([S-])OCC(C)C.CCCCCCOP(=S)([S-])OCC(C)C.[Zn+2],4.924,-4.172,5.812,-3.772,4.533
"1-Propanamine, 3-(C8-10-alkyloxy) derivs",68784-38-3,CCCCCCCCCOCCCN,CCCCCCCCCOCCCN,0.965,-3.592,3.192,-3.721,9.949
"Propanenitrile, 3-(C8-10-alkyloxy) deriv",68784-39-4,CCCCCCCCCOCCC#N,CCCCCCCCCOCCC#N,3.4,-3.322,3.771,-3.486,11.216
"Amines, tri-C8-10-alkyl",68814-95-9,CCCCCCCCCN(CCCCCCCCC)CCCCCCCCC,CCCCCCCCCN(CCCCCCCCC)CCCCCCCCC,4.4030000000000005,-5.654,8.943999999999997,-1.7990000000000002,9.061
"Poly(oxy-1,2-ethanediyl), .alpha.-(3-carboxy-1-oxosulfopropyl)-.omega.-hydroxy-,C10-16-alkyl ethers, disodium salts",68815-56-5,[Na+].[Na+].CCCCCCCCCCCCOCCOCC(CC([O-])=O)[S]([O-])(=O)=O,CCCCCCCCCCCCOCCOCC(CC(=O)[O-])S(=O)(=O)[O-].[Na+].[Na+],2.765,-3.267,4.456,-5.952999999999999,5.745
"Phenol, thiobis[tetrapropylene-",68815-67-8,CCCC(C)C(CCC)C(C)Cc1c(O)cccc1Sc2cccc(O)c2CC(C)C(CCC)C(C)CCC,CCCC(C)C(CCC)C(C)Cc1c(O)cccc1Sc1cccc(O)c1CC(C)C(CCC)C(C)CCC,4.854,-6.617000000000001,8.868,-2.839,7.852
"Benzene, C14-30-alkyl derivs.",68855-24-3,CCCCCCCCCCCCCCCCCCCCCCc1ccccc1,CCCCCCCCCCCCCCCCCCCCCCc1ccccc1,5.043,-6.327999999999999,10.718,-0.525,7.233
"Alcohols, C12-16",68855-56-1,CCCCCCCCCCCCCCO,CCCCCCCCCCCCCCO,4.3210000000000015,-4.401,6.319,-2.019,7.866
"Alkenes, C10-16 .alpha.-",68855-58-3,CCCCCCCCCCCCC=C,C=CCCCCCCCCCCCC,5.294,-5.069,8.027999999999999,0.6,6.688
"Alkenes, C14-18 .alpha.-",68855-59-4,CCCCCCCCCCCCCCC=C,C=CCCCCCCCCCCCCCC,5.36,-5.3839999999999995,8.809,0.501,6.914
"Alkenes, C14-20 .alpha.-",68855-60-7,CCCCCCCCCCCCCCCCC=C,C=CCCCCCCCCCCCCCCCC,5.4110000000000005,-5.622000000000001,9.398,0.425,7.088
"Aluminium, tri-C2-20-alkyl complexes",68908-97-4,CCCCCCCCCCC[Al](CCCCCCCCCCC)CCCCCCCCCCC,CCCCCCCCCCC[Al](CCCCCCCCCCC)CCCCCCCCCCC,5.558,-6.151,10.667,-0.385,7.42
"Pyridinium, 1-(phenylmethyl)-, Et Me derivs., chlorides",68909-18-2,[Cl-].C[N+]1(CC=CC=C1)Cc2ccccc2,C[N+]1(Cc2ccccc2)C=CC=CC1.[Cl-],0.119,-3.0869999999999997,-1.181,-3.679,7.286
"Ethanol, 2,2'-oxybis-, reaction products with ammonia, fractionation forecuts",68909-76-2,N.OCCOCCO,N.OCCOCCO,-1.602,0.45799999999999996,-1.108,-9.215,13.736
"Phosphorodithioic acid, mixed O,O-bis(2-ethylhexyl and iso-Pr) esters",68909-92-2,CCCCC(CC)CO[P](S)(=S)OC(C)C,CCCCC(CC)COP(=S)(S)OC(C)C,5.0939999999999985,-4.003,5.756,-4.385,4.583
"Alcohols, C18-32",68911-61-5,CCCCCCCCCCCCCCCCCCO,CCCCCCCCCCCCCCCCCCO,4.694,-5.08,7.9289999999999985,-1.636,7.998
"Polyphosphoric acids, sodium salts",68915-31-1,[Na+].[Na+].O[P]([O-])(=O)O[P](O)([O-])=O,O=P([O-])(O)OP(=O)([O-])O.[Na+].[Na+],2.603,0.275,-1.819,-12.88,4.836
"Hydrocarbons, C<10-linear",68920-07-0,CCC,CCC,5.465,-1.47,2.434,2.214,6.854
"Disulfides, di-C1-2-alkyl",68920-64-9,CSSC,CSSC,1.866,-1.02,1.727,-2.13,3.298
"Phenol, isobutylenated, phosphate (3:1)",68937-40-6,CC(C)Cc1ccc(O[P](=O)(Oc2ccc(CC(C)C)cc2)Oc3ccc(CC(C)C)cc3)cc1,CC(C)Cc1ccc(OP(=O)(Oc2ccc(CC(C)C)cc2)Oc2ccc(CC(C)C)cc2)cc1,4.896,-6.144,7.189,-4.702,6.389
"Phenol, isopropylated, phosphate (3:1)",68937-41-7,CC(C)c1ccc(O[P](=O)(Oc2ccc(cc2)C(C)C)Oc3ccc(cc3)C(C)C)cc1,CC(C)c1ccc(OP(=O)(Oc2ccc(C(C)C)cc2)Oc2ccc(C(C)C)cc2)cc1,4.963,-5.8839999999999995,6.3679999999999986,-5.334,4.871
"Fatty acids, C8-10",68937-75-7,CCCCCCCCC(O)=O,CCCCCCCCC(=O)O,1.314,-2.496,2.867,-4.306,4.666
"Fatty acids, C12-18, methyl esters",68937-84-8,CCCCCCCCCCCCCCC(=O)OC,CCCCCCCCCCCCCCC(=O)OC,5.124,-4.582,7.166,-1.587,6.742
"Fatty acids, C18-unsatd., trimers",68937-90-6,OC(=O)C/C=C/C=C/C=C/C=C/C=C/C=C/C=C/C=C/OC(=O)C\C=C\C=C\C=C\C=C\C=C\C=C\C=C\C=C\OC(=O)C\C=C\C=C\C=C\C=C\C=C\C=C\C=C\C=C,C=C/C=C/C=C/C=C/C=C/C=C/C=C/C=C/CC(=O)O/C=C/C=C/C=C/C=C/C=C/C=C/C=C/C=C/CC(=O)O/C=C/C=C/C=C/C=C/C=C/C=C/C=C/C=C/CC(=O)O,0.752,-3.405,6.384,-7.982,6.664
"Polysulfides, di-tert-Bu",68937-96-2,CC(C)(C)CSSCC(C)(C)C,CC(C)(C)CSSCC(C)(C)C,5.67,-3.5,4.6080000000000005,-1.27,11.537
"Fatty acids, C9-13-neo-",68938-07-8,CC(C)(C)CCCCCCCC(O)=O,CC(C)(C)CCCCCCCC(=O)O,2.225,-3.27,4.095,-3.2769999999999997,5.305
"Benzoic acid, 3,6-dichloro-2-hydroxy-, potassium sodium salt",68938-79-4,[Na+].[K+].[O-]C(=O)c1c([O-])c(Cl)ccc1Cl,O=C([O-])c1c(Cl)ccc(Cl)c1[O-].[K+].[Na+],1.953,-3.995,2.5660000000000003,-5.655,6.882
"Benzoic acid, 3,6-dichloro-2-hydroxy-, dipotassium salt",68938-80-7,[K+].[K+].[O-]C(=O)c1c([O-])c(Cl)ccc1Cl,O=C([O-])c1c(Cl)ccc(Cl)c1[O-].[K+].[K+],2.0380000000000003,-3.99,2.572,-5.649,8.835
"Phenol, 2,5-dichloro-, potassium salt",68938-81-8,[K+].[O-]c1cc(Cl)ccc1Cl,[K+].[O-]c1cc(Cl)ccc1Cl,3.5410000000000004,-3.542,3.091,-3.4160000000000004,9.687
"Benzene, phenoxytetrapropylene-",68938-96-5,CCCc1cc(CCC)c(CCC)c(Oc2ccccc2)c1CCC,CCCc1cc(CCC)c(CCC)c(Oc2ccccc2)c1CCC,5.462999999999999,-6.444,8.634,-2.7230000000000003,4.209
"Oxirane, reaction products with ammonia, distn. residues",68953-70-8,N.C1CO1,C1CO1.N,-0.7959999999999999,0.248,-0.021,-5.747999999999999,13.107
"Benzene, mixed with toluene, dealkylation product",68953-80-0,Cc1ccccc1.c2ccccc2,Cc1ccccc1.c1ccccc1,2.9760000000000004,-2.481,2.507,-0.14800000000000002,1.675
"Sulfuric acid, mono-C12-18-alkyl esters, sodium salts",68955-19-1,[Na+].CCCCCCCCCCCCCCCO[S]([O-])(=O)=O,CCCCCCCCCCCCCCCOS(=O)(=O)[O-].[Na+],4.9060000000000015,-3.83,6.675,-3.19,5.535
"Sulfuric acid, mono-C16-18-alkyl esters, sodium salts",68955-20-4,[Na+].CCCCCCCCCCCCCCCCCO[S]([O-])(=O)=O,CCCCCCCCCCCCCCCCCOS(=O)(=O)[O-].[Na+],5.026,-4.159,7.3679999999999986,-2.9730000000000003,5.754
"Amines, C12-14-tert-alkyl",68955-53-3,CC(C)(C)CCCCCCCCCN,CC(C)(C)CCCCCCCCCN,1.374,-4.349,4.114,-1.52,10.786
"Amines, C12-18-alkyldimethyl, N-oxides",68955-55-5,CCCCCCCCCCCCCCC[N+](C)(C)[O-],CCCCCCCCCCCCCCC[N+](C)(C)[O-],2.006,-4.816,3.845,-1.6119999999999999,5.989
"Hydrocarbons, C4-8",68956-52-5,c1ccccc1,c1ccccc1,2.541,-2.339,2.207,0.26,0.603
"Hydrocarbons, C4-unsatd.",68956-54-7,C\C=C\C,C/C=C/C,2.265,-1.704,1.98,1.824,8.142
"Hydrocarbons, C5-unsatd.",68956-55-8,CC\C=C\C,C/C=C/CC,3.213,-2.07,2.676,1.2409999999999999,7.206
"Hexasodium 2,2'-[vinylenebis[(3-sulphonato-4,1-phenylene)imino[6-[bis(2-hydroxyethyl)amino]-1,3,5-triazine-4,2-diyl]imino]]bis(benzene-1,4-disulphonate)",68971-49-3,[Na+].[Na+].[Na+].[Na+].[Na+].[Na+].OCCN(CCO)c1nc(Nc2ccc(C=Cc3ccc(Nc4nc(Nc5cc(ccc5[S]([O-])(=O)=O)[S]([O-])(=O)=O)nc(n4)N(CCO)CCO)cc3[S]([O-])(=O)=O)c(c2)[S]([O-])(=O)=O)nc(Nc6cc(ccc6[S]([O-])(=O)=O)[S]([O-])(=O)=O)n1,O=S(=O)([O-])c1ccc(S(=O)(=O)[O-])c(Nc2nc(Nc3ccc(C=Cc4ccc(Nc5nc(Nc6cc(S(=O)(=O)[O-])ccc6S(=O)(=O)[O-])nc(N(CCO)CCO)n5)cc4S(=O)(=O)[O-])c(S(=O)(=O)[O-])c3)nc(N(CCO)CCO)n2)c1.[Na+].[Na+].[Na+].[Na+].[Na+].[Na+],1.947,-3.49,2.229,-12.588,3.085
"Benzene, ethylenated",68987-41-7,C=Cc1ccccc1,C=Cc1ccccc1,2.653,-2.867,2.766,-1.632,3.12
"Alkenes, C10-16",68991-52-6,CCCCCCCCC\C=C\C,C/C=C/CCCCCCCCC,4.835,-4.52,6.516,0.451,6.764
"1,1'-Biphenyl, bis(1-methylethyl)-",69009-90-1,CC(C)c1cccc(c2ccccc2)c1C(C)C,CC(C)c1cccc(-c2ccccc2)c1C(C)C,5.0680000000000005,-5.415,5.931,-2.377,5.244
Lead dioxide phthalate,69011-06-9,[O-]C(=O)c1ccccc1C([O-])=O.O=[Pb++]=O,O=C([O-])c1ccccc1C(=O)[O-].O=[Pb+2]=O,-0.393,-2.069,1.251,-7.485,3.791
"Pyridine, 2-chloro-5-(trichloromethyl)-",69045-78-9,Clc1ccc(cn1)C(Cl)(Cl)Cl,Clc1ccc(C(Cl)(Cl)Cl)cn1,3.536,-3.739,2.9610000000000003,-3.78,6.981
Potassium (R)-(4-hydroxyphenyl)[(3-methoxy-1-methyl-3-oxoprop-1-enyl)amino]acetate,69416-61-1,[K+].COC(=O)C=C(C)N[C@@H](C([O-])=O)c1ccc(O)cc1,COC(=O)C=C(C)N[C@@H](C(=O)[O-])c1ccc(O)cc1.[K+],1.224,-2.755,1.311,-11.450999999999999,7.254
"Hydrocarbons, C6-30",69430-33-7,CCC,CCC,5.465,-1.47,2.434,2.214,6.854
"Benzenesulfonic acid, C10-14-alkyl derivs., sodium salts",69669-44-9,[Na+].CCCCCCCCCC(CC)c1ccc(cc1)[S]([O-])(=O)=O,CCCCCCCCCC(CC)c1ccc(S(=O)(=O)[O-])cc1.[Na+],4.45,-4.803999999999999,6.759,-4.564,4.636
"9-Octadecenoic acid (9Z)-, ester with 2-ethyl-2-(hydroxymethyl)-1,3-propane",70024-57-6,CCCCCCCC\C=C/CCCCCCCC(O)=O.CCC(CO)(CO)CO,CCC(CO)(CO)CO.CCCCCCCC/C=C\CCCCCCCC(=O)O,2.194,-2.8080000000000003,3.027,-6.757000000000001,6.57
"Benzenesulfonic acid, C16-24-alkyl derivs.",70024-67-8,CCCCCCCCCCCCCCCCCCCCc1ccc(cc1)[S](O)(=O)=O,CCCCCCCCCCCCCCCCCCCCc1ccc(S(=O)(=O)O)cc1,4.61,-5.2970000000000015,6.58,-4.698,2.893
"Alkanes, C7-8-iso-",70024-92-9,CCC(C)C,CCC(C)C,2.954,-2.151,2.9810000000000003,2.739,9.205
"Benzenesulfonic acid, decyl(sulfophenoxy)-",70191-75-2,CCCCCCCCCCc1cccc(c1Oc2ccccc2[S](O)(=O)=O)[S](O)(=O)=O,CCCCCCCCCCc1cccc(S(=O)(=O)O)c1Oc1ccccc1S(=O)(=O)O,2.7430000000000003,-4.175,0.989,-8.488999999999999,-1.561
"Phenol, 2-(2H-benzotriazol-2-yl)-4,6-bis(1-methyl-1-phenylethyl)-",70321-86-7,CC(C)(c1ccccc1)c2cc(n3nc4ccccc4n3)c(O)c(c2)C(C)(C)c5ccccc5,CC(C)(c1ccccc1)c1cc(-n2nc3ccccc3n2)c(O)c(C(C)(C)c2ccccc2)c1,4.137,-5.2620000000000005,6.51,-7.473,5.186
"Benzene, C14-26-alkyl derivs.",70356-32-0,CCCCCCCCCCCCCCCCCCCc1ccccc1,CCCCCCCCCCCCCCCCCCCc1ccccc1,4.956,-6.184,10.316,-0.5589999999999999,7.056
"2-Anthracenesulfonic acid, 4-[[3-(acetylamino)phenyl]amino]-1-amino-9,10-dihydro-9,10-dioxo-, monosodium salt",70571-81-2,[Na+].CC(=O)Nc1cccc(Nc2cc(c(N)c3C(=O)c4ccccc4C(=O)c23)[S]([O-])(=O)=O)c1,CC(=O)Nc1cccc(Nc2cc(S(=O)(=O)[O-])c(N)c3c2C(=O)c2ccccc2C3=O)c1.[Na+],1.66,-3.926,3.523,-12.248,4.529
"Amines, C10-16-alkyldimethyl, N-oxides",70592-80-2,CCCCCCCCCCCCC[N+](C)(C)[O-],CCCCCCCCCCCCC[N+](C)(C)[O-],1.537,-4.5,2.895,-1.775,5.698
"Phthalic acid, mixed decyl, lauryl and octyl diesters",70693-30-0,CCCCCCCCCCCC(O)=O.CCCCCCCCCC(O)=O.CCCCCCCC(O)=O.OC(=O)c1ccccc1C(O)=O,CCCCCCCC(=O)O.CCCCCCCCCC(=O)O.CCCCCCCCCCCC(=O)O.O=C(O)c1ccccc1C(=O)O,0.472,-2.8739999999999997,2.951,-5.91,4.122
"Phenol, 2,4-bis(1-methyl-1-phenylethyl)-6-[(2-nitrophenyl)azo]-",70693-50-4,CC(C)(c1ccccc1)c2cc(N=Nc3ccccc3[N+]([O-])=O)c(O)c(c2)C(C)(C)c4ccccc4,CC(C)(c1ccccc1)c1cc(N=Nc2ccccc2[N+](=O)[O-])c(O)c(C(C)(C)c2ccccc2)c1,4.268,-5.223,6.837999999999999,-6.485,5.604
"Heptanoic acid, oxybis(2,1-ethanediyloxy-2,1-ethanediyl) ester",70729-68-9,CCCCCCC(=O)OCCOCCOCCOCCOC(=O)CCCCCC,CCCCCCC(=O)OCCOCCOCCOCCOC(=O)CCCCCC,4.047,-3.275,3.602,-5.182,10.901
"Sulfonic acids, C10-18-alkane, Ph esters",70775-94-9,CCC[S](O)(=O)=O.Oc1ccccc1,CCCS(=O)(=O)O.Oc1ccccc1,1.394,-0.705,-1.039,-8.681000000000001,7.501
"Alcohols, C6-8-branched",70914-20-4,CCCC(CC)CO,CCCC(CC)CO,2.692,-1.733,2.441,-3.0669999999999997,9.637
"Potassium sodium 4,4'-bis[6-anilino-4-[bis(2-hydroxyethyl)amino]-1,3,5-triazin-2-yl]amino]stilbene-2,2'-disulphonate",70942-01-7,[Na+].[Na+].[K].[K].OCCN(CCO)c1nc(Nc2ccccc2)nc(Nc3ccc(\C=C\c4ccc(Nc5nc(Nc6ccccc6)nc(n5)N(CCO)CCO)cc4[S]([O-])(=O)=O)c(c3)[S]([O-])(=O)=O)n1,O=S(=O)([O-])c1cc(Nc2nc(Nc3ccccc3)nc(N(CCO)CCO)n2)ccc1/C=C/c1ccc(Nc2nc(Nc3ccccc3)nc(N(CCO)CCO)n2)cc1S(=O)(=O)[O-].[K].[K].[Na+].[Na+],3.139,-3.977,3.359,-12.168,4.159
"Alkanes, C4-6",70955-08-7,CCC,CCC,5.465,-1.47,2.434,2.214,6.854
"Aromatic hydrocarbons, C12-20",70955-17-8,CCc1ccccc1,CCc1ccccc1,3.585,-2.67,3.298,-1.0090000000000001,3.852
"Phthalic acid, di-C8-10-alkyl esters",71662-46-9,CCCCCCCCCOC(=O)c1ccccc1C(=O)OCCCCCCCC,CCCCCCCCCOC(=O)c1ccccc1C(=O)OCCCCCCCC,5.188,-5.944,8.078,-3.767,6.042
"Nitric acid, reaction products with cyclododecanol and cyclododecanone, by-products from, high-boiling fraction",72162-23-3,OC1CCCCCCCCCCC1.O[N+]([O-])=O.O=C2CCCCCCCCCCC2,O=C1CCCCCCCCCCC1.O=[N+]([O-])O.OC1CCCCCCCCCCC1,2.03,-1.508,2.151,-3.179,4.781
"Benzoic acid, 3-[2-chloro-4-(trifluoromethyl)phenoxy]-, potassium salt",72252-48-3,[K+].[O-]C(=O)c1cccc(Oc2ccc(cc2Cl)C(F)(F)F)c1,O=C([O-])c1cccc(Oc2ccc(C(F)(F)F)cc2Cl)c1.[K+],4.106,-5.083,4.8260000000000005,-4.387,6.66
"Fatty acids, C9-28-neo-",72480-45-6,CC(C)(C)CCCCCCCCCCCCCCC(O)=O,CC(C)(C)CCCCCCCCCCCCCCC(=O)O,3.821,-4.695,7.3820000000000014,-2.293,5.747
"Phenol, heptyl derivs.",72624-02-3,CCCCCCCc1ccc(O)cc1,CCCCCCCc1ccc(O)cc1,4.023,-4.3469999999999995,5.2410000000000005,-4.315,9.713
"Imidazolium compounds, 2-(C17 and C17-unsatd.alkyl)-1-[2-(C18 and C18-unsat",72749-55-4,CCCCCCCCCCCCCCCCCN1CC[N+](=C1CCCCCCCCCCCCCCCCC)C.CO[S]([O-])(=O)=O,CCCCCCCCCCCCCCCCCC1=[N+](C)CCN1CCCCCCCCCCCCCCCCC.COS(=O)(=O)[O-],3.773,-4.94,5.79,-2.7030000000000003,8.089
"Fatty acids, montan-wax, ethylene esters",73138-45-1,CCCCCCCCCCCCCCCCCCCCCCCCCCCC(=O)OCCO,CCCCCCCCCCCCCCCCCCCCCCCCCCCC(=O)OCCO,5.204,-5.5870000000000015,9.268,-2.3209999999999997,8.634
"13-Docosenenitrile, (13Z)-",73170-89-5,CCCCCCCC\C=C/CCCCCCCCCCCC#N,CCCCCCCC/C=C\CCCCCCCCCCCC#N,4.72,-5.22,8.288,-1.655,8.241
"Acetamide, 2-(benzothiazol-2-yloxy)-N-methyl-N-phenyl",73250-68-7,CN(C(=O)COc1sc2ccccc2n1)c3ccccc3,CN(C(=O)COc1nc2ccccc2s1)c1ccccc1,3.509,-4.258,3.119,-7.76,1.211
"9,10-Anthracenediol, 1,4-dihydro, di Na salt",73347-80-5,[Na+].[Na+].[O-]c1c2CC=CCc2c([O-])c3ccccc13,[Na+].[Na+].[O-]c1c2c(c([O-])c3ccccc13)CC=CC2,3.161,-4.293,3.738,-5.3870000000000005,5.347
2-Ethylhexyl decanoate,73947-30-5,CCCCCCCCCC(=O)OCC(CC)CCCC,CCCCCCCCCC(=O)OCC(CC)CCCC,5.69,-4.75,6.892,-1.3530000000000002,6.794
"Phenol, (tetrapropenyl) derivs.",74499-35-7,Oc1c(C=C)c(C=C)cc(C=C)c1C=C,C=Cc1cc(C=C)c(C=C)c(O)c1C=C,2.639,-5.053,5.528,-6.777,8.708
"Amines, C16-22-alkyldimethyl",75444-69-8,CCCCCCCCCCCCCCCCN(C)C,CCCCCCCCCCCCCCCCN(C)C,3.0610000000000004,-4.958,7.146,-1.469,10.365
"Calcium chloride phosphate (Ca5Cl(PO4)3), solid soln. with calcium fluoridephosphate (Ca5F(PO4)3)",75535-31-8,[F].[Cl].[Ca++].[O-][P]([O-])([O-])=O,O=P([O-])([O-])[O-].[Ca+2].[Cl].[F],1.689,-0.5820000000000001,1.089,-6.4639999999999995,11.033
"Alcohols, C12-13",75782-86-4,C.CCCCCCCCCCCCO,C.CCCCCCCCCCCCO,3.874,-3.614,4.837,-1.9880000000000002,9.047
"Alcohols, C14-15",75782-87-5,CCCCCCCCCCCCCCO,CCCCCCCCCCCCCCO,4.3210000000000015,-4.401,6.319,-2.019,7.866
"Phosphoric acid, bis(2-chloro-1-methylethyl) 2-chloropropyl ester",76025-08-6,CC(Cl)CO[P](=O)(OC(C)CCl)OC(C)CCl,CC(Cl)COP(=O)(OC(C)CCl)OC(C)CCl,4.835,-2.911,2.674,-7.079,13.11
"Acetic acid, calcium magnesium salt",76123-46-1,[Mg++].[Ca++].CC([O-])=O.CC([O-])=O.CC([O-])=O.CC([O-])=O,CC(=O)[O-].CC(=O)[O-].CC(=O)[O-].CC(=O)[O-].[Ca+2].[Mg+2],-1.973,-0.114,0.409,-4.8660000000000005,9.501
"Eicosenoic acid, methyl ester, (Z)-",76899-35-9,CCCCCCCCCCCCCCCCC\C=C/C(=O)OC,CCCCCCCCCCCCCCCCC/C=C\C(=O)OC,5.149,-5.125,9.036,-2.133,5.741
"Phthalic acid, 3,4,5,6-tetrabromo-, mixed esters with diethylene glycol andpropylene glycol",77098-07-8,CC(O)CO.OCCOCCO.OC(=O)c1c(Br)c(Br)c(Br)c(Br)c1C(O)=O,CC(O)CO.O=C(O)c1c(Br)c(Br)c(Br)c(Br)c1C(=O)O.OCCOCCO,-1.538,-2.424,0.037000000000000005,-10.364,5.054
Ammonium 2-amino-4-(hydroxymethylphosphinyl)butyrate,77182-82-2,[NH4+].NC(CC[PH](=O)CO)C([O-])=O,NC(CC[PH](=O)CO)C(=O)[O-].[NH4+],-0.892,-0.552,-2.372,-11.749,8.468
"Benzaldehyde, 5-dodecyl-2-hydroxy-, oxime",77635-32-6,CCCCCCCCCCCCc1ccc(O)c(C=NO)c1,CCCCCCCCCCCCc1ccc(O)c(C=NO)c1,3.708,-5.11,7.515,-5.513,10.416
"Alcohols, C12-14",80206-82-2,CCCCCCCCCCCCCO,CCCCCCCCCCCCCO,4.183,-4.169,5.78,-2.149,7.818
"Oxirane, 2-[2-(4-chlorophenyl)ethyl]-2-(1,1-dimethylethyl)-",80443-63-6,CC(C)(C)C1(CCc2ccc(Cl)cc2)CO1,CC(C)(C)C1(CCc2ccc(Cl)cc2)CO1,4.925,-5.149,6.564,-3.696,5.521
"1-Methylheptyl [(4-amino-3,5-dichloro-6-fluoropyridin-2-yl)oxy]acetate",81406-37-3,CCCCCCC(C)OC(=O)COc1nc(F)c(Cl)c(N)c1Cl,CCCCCCC(C)OC(=O)COc1nc(F)c(Cl)c(N)c1Cl,3.594,-4.4910000000000005,5.292999999999998,-5.625,5.514
"1,1'-Biphenyl, butenylated",81846-81-3,c1ccc(cc1)c2ccccc2,c1ccc(-c2ccccc2)cc1,3.716,-3.99,4.093,-2.573,3.48
"1,6-Hexanediamine, N,N'-bis(2,2,6,6-tetramethyl-4-piperidinyl)-, polymer with 2,4-dichloro-6-(4-morpholinyl)-1,3,5-triazine",82451-48-7,CC1(C)CC(CC(C)(C)N1)NCCCCCCNC2CC(C)(C)NC(C)(C)C2.Clc3nc(Cl)nc(n3)N4CCOCC4,CC1(C)CC(NCCCCCCNC2CC(C)(C)NC(C)(C)C2)CC(C)(C)N1.Clc1nc(Cl)nc(N2CCOCC2)n1,-1.043,-3.0780000000000003,1.883,-6.797999999999999,8.112
Isobutyl (S)-2-chloropropionate,83261-15-8,CC(C)COC(=O)[C@H](C)Cl,CC(C)COC(=O)[C@H](C)Cl,4.374,-2.18,2.623,-3.8160000000000003,9.253
"Benzenepropanoic acid, 3-(2H-benzotriazol-2-yl)-5-(1,1-dimethylethyl)-4-hydroxy-, methyl ester",84268-33-7,COC(=O)CCc1cc(n2nc3ccccc3n2)c(O)c(c1)C(C)(C)C,COC(=O)CCc1cc(-n2nc3ccccc3n2)c(O)c(C(C)(C)C)c1,3.897,-4.171,3.754,-8.604,6.208
"Phosphorodithioic acid, mixed O,O-bis(1,3-dimethylbutyl and iso-Pr)esters",84605-28-7,CC(C)C[C@@H](C)O[P](S)(=S)OC(C)C,CC(C)C[C@@H](C)OP(=S)(S)OC(C)C,4.702,-3.685,4.558,-5.101,5.289
"Zinc, dithiophosphate mixed 1,3-dimethylbutyl & isoPr ester",84605-29-8,[Zn++].CC(C)CC(C)O[P]([S-])(=S)OC(C)C.CC(C)CC(C)O[P]([S-])(=S)OC(C)C,CC(C)CC(C)OP(=S)([S-])OC(C)C.CC(C)CC(C)OP(=S)([S-])OC(C)C.[Zn+2],4.905,-4.221,5.198,-3.398,10.316
"Pyrrolo[3,4-c]pyrrole-1,4-dione, 3,6-bis(4-chlorophenyl)-2,5-dihydro-",84632-65-5,Clc1ccc(cc1)C2=C3C(=O)NC(=C3C(=O)N2)c4ccc(Cl)cc4,O=C1NC(c2ccc(Cl)cc2)=C2C(=O)NC(c3ccc(Cl)cc3)=C12,4.042,-4.614,3.111,-9.568999999999999,7.857
"Phenol, 4-nonyl-, branched",84852-15-3,CC(C)CCCCCCc1ccc(O)cc1,CC(C)CCCCCCc1ccc(O)cc1,4.212,-4.795,6.065,-3.5669999999999997,9.976
"2-Oxetanone, 3-C12-16-alkyl-4-C13-17-alkylidene derivs.",84989-41-3,CCCCCCCCCCCCCC/C=C/1OC(=O)C1CCCCCCCCCCCCCC,CCCCCCCCCCCCCC/C=C1\OC(=O)C1CCCCCCCCCCCCCC,5.558,-6.0870000000000015,10.262,-1.96,6.879
"Benzenesulfonic acid, C10-14-alkyl derivs., sodium salts",85117-50-6,[Na+].CCCCCCCCCC(CC)c1ccc(cc1)[S]([O-])(=O)=O,CCCCCCCCCC(CC)c1ccc(S(=O)(=O)[O-])cc1.[Na+],4.45,-4.803999999999999,6.759,-4.564,4.636
"Glycerides, C16-18 mono- and di-",85251-77-0,CCCCCCCCCCCCCCCCCC(=O)OC(CO)COC(=O)CCCCCCCCCCCCCCC,CCCCCCCCCCCCCCCCCC(=O)OC(CO)COC(=O)CCCCCCCCCCCCCCC,5.256,-5.452000000000001,8.867,-3.1,8.025
"Diundecyl phthalate, branched and linear esters",85507-79-5,CCCCCCCCCCCOC(=O)c1ccccc1C(=O)OCCCCCCCCCCC,CCCCCCCCCCCOC(=O)c1ccccc1C(=O)OCCCCCCCCCCC,5.294,-6.1960000000000015,9.11,-3.275,6.505
"Alkenes, C10-13",85535-87-1,CCCCCCC\C=C\CC,CC/C=C/CCCCCCC,4.849,-3.9939999999999998,5.766,0.377,5.354