chemical_name,cas,smiles,canonical_smiles,log_p,log_s,kow,water-energy,pka
"Stearin, 1-mono-",123-94-4,CCCCCCCCCCCCCCCCCC(=O)OCC(O)CO,CCCCCCCCCCCCCCCCCC(=O)OCC(O)CO,4.055,-4.252,6.01,-5.043,7.273
Butyl stearate,123-95-5,CCCCCCCCCCCCCCCCCC(=O)OCCCC,CCCCCCCCCCCCCCCCCC(=O)OCCCC,5.636,-5.353,8.422,-1.45,7.875
2-Octanol,123-96-6,CCCCCCC(C)O,CCCCCCC(C)O,2.4290000000000003,-2.0580000000000003,2.838,-3.1289999999999996,6.747
Azelaic acid,123-99-9,OC(=O)CCCCCCCC(O)=O,O=C(O)CCCCCCCC(=O)O,-0.447,-1.7630000000000001,0.514,-7.7379999999999995,5.124
"2-Propen-1-amine, N-2-propenyl-",124-02-7,C=CCNCC=C,C=CCNCC=C,0.29100000000000004,-1.416,0.8690000000000001,-5.319,8.957
Adipic acid,124-04-9,OC(=O)CCCCC(O)=O,O=C(O)CCCCC(=O)O,-2.269,-0.591,-0.792,-9.482000000000001,5.346
Octanoic acid,124-07-2,CCCCCCCC(O)=O,CCCCCCCC(=O)O,0.936,-2.073,2.214,-4.678,4.619
"1,6-Hexanediamine",124-09-4,NCCCCCCN,NCCCCCCN,-4.102,-1.989,-2.033,-6.81,10.911
Methyl myristate,124-10-7,CCCCCCCCCCCCCC(=O)OC,CCCCCCCCCCCCCC(=O)OC,5.0680000000000005,-4.405,6.739,-1.663,6.638
Octanal,124-13-0,CCCCCCCC=O,CCCCCCCC=O,4.101,-2.574,3.204,-2.0069999999999997,7.436
"Ethanol, 2-(2-butoxyethoxy)-, acetate",124-17-4,CCCCOCCOCCO.CC(O)=O,CC(=O)O.CCCCOCCOCCO,-1.112,-0.484,-0.616,-7.026,6.723
n-Decane,124-18-5,CCCCCCCCCC,CCCCCCCCCC,5.218,-4.095,5.78,1.3630000000000002,6.147
Nonanal,124-19-6,CCCCCCCCC=O,CCCCCCCCC=O,4.335,-3.062,3.847,-1.8319999999999999,7.531
1-Dodecanamine,124-22-1,CCCCCCCCCCCCN,CCCCCCCCCCCCN,1.212,-4.474,4.046,-1.92,10.504
Octadecanamide,124-26-5,CCCCCCCCCCCCCCCCCC(N)=O,CCCCCCCCCCCCCCCCCC(N)=O,4.268,-4.7139999999999995,6.813,-3.182,7.967
"1-Octadecanamine, N,N-dimethyl-",124-28-7,CCCCCCCCCCCCCCCCCCN(C)C,CCCCCCCCCCCCCCCCCCN(C)C,3.388,-5.209,7.789,-1.3459999999999999,10.419
1-Octadecanamine,124-30-1,CCCCCCCCCCCCCCCCCCN,CCCCCCCCCCCCCCCCCCN,2.649,-5.4579999999999975,6.8679999999999986,-1.371,10.527
Carbon dioxide,124-38-9,O=C=O,O=C=O,-5.754,0.7979999999999999,0.86,-7.2,-2.503
Dimethylamine,124-40-3,CNC,CNC,-5.1789999999999985,-0.026000000000000002,-0.628,-3.523,10.853
Sodium methoxide,124-41-4,[Na+].C[O-],C[O-].[Na+],0.633,-0.9740000000000001,0.569,-2.488,0.696
Methanesulphonyl chloride,124-63-0,C[S](Cl)(=O)=O,CS(=O)(=O)Cl,-1.16,0.252,0.124,-5.724,6.223
"1-Propanol, 2-amino-2-methyl-",124-68-5,CC(C)(N)CO,CC(C)(N)CO,-2.339,-0.5,-0.847,-10.515999999999998,9.409
"Silane, dichloroethenylmethyl-",124-70-9,C[SiH2]C=C(Cl)Cl,C[SiH2]C=C(Cl)Cl,2.274,-2.1719999999999997,2.818,-1.0979999999999999,6.18
Isobornyl acetate,125-12-2,CC(=O)OC1CC2CCC1(C)C2(C)C,CC(=O)OC1CC2CCC1(C)C2(C)C,3.626,-4.151,4.122,-2.508,7.642
"2,4-Imidazolidinedione, 3-bromo-1-chloro-5,5-dimethyl-",126-06-7,CC1(C)N(Cl)C(=O)N(Br)C1=O,CC1(C)C(=O)N(Br)C(=O)N1Cl,-0.5820000000000001,-1.359,1.136,-10.874,3.839
"1,3-Propanediol, 2-(hydroxymethyl)-2-nitro-",126-11-4,OCC(CO)(CO)[N+]([O-])=O,O=[N+]([O-])C(CO)(CO)CO,-0.96,-0.428,-0.465,-14.36,5.402
"1,3-Propanediol, 2,2-dimethyl-",126-30-7,CC(C)(CO)CO,CC(C)(CO)CO,0.268,-0.349,-0.209,-10.158999999999999,12.934
"Thiophene, tetrahydro-, 1,1-dioxide",126-33-0,O=[S]1(=O)CCCC1,O=S1(=O)CCCC1,1.996,-0.375,-0.962,-9.061,8.592
"Nonanoic acid, 2-ethyl-2-[[(1-oxononyl)oxy]methyl]-1,3-propanediyl ester",126-57-8,CCCCCCCCC(=O)OCC(CC)(COC(=O)CCCCCCCC)COC(=O)CCCCCCCC,CCCCCCCCC(=O)OCC(CC)(COC(=O)CCCCCCCC)COC(=O)CCCCCCCC,5.722,-5.178999999999999,7.175,-3.403,6.668
Dipentaerythritol,126-58-9,OCC(CO)(CO)COCC(CO)(CO)CO,OCC(CO)(CO)COCC(CO)(CO)CO,0.329,-0.39399999999999996,-2.754,-15.079,9.746
Triisobutyl phosphate,126-71-6,CC(C)CO[P](=O)(OCC(C)C)OCC(C)C,CC(C)COP(=O)(OCC(C)C)OCC(C)C,5.454,-2.5580000000000003,3.914,-5.931,6.384
Tributyl phosphate,126-73-8,CCCCO[P](=O)(OCCCC)OCCCC,CCCCOP(=O)(OCCCC)OCCCC,5.369,-2.9760000000000004,3.943,-6.135,6.766
"1-Propanesulfonic acid, 3-chloro-2-hydroxy-, monosodium salt",126-83-0,[Na].OC(CCl)C[S](O)(=O)=O,O=S(=O)(O)CC(O)CCl.[Na],0.624,0.188,-2.988,-11.732000000000001,2.621
"5-Decyne-4,7-diol, 2,4,7,9-tetramethyl-",126-86-3,CC(C)CC(C)(O)C#CC(C)(O)CC(C)C,CC(C)CC(C)(O)C#CC(C)(O)CC(C)C,3.48,-2.557,3.51,-4.814,11.629
"Sulfuric acid, mono(2-ethylhexyl) ester, sodium salt",126-92-1,[Na+].CCCCC(CC)CO[S]([O-])(=O)=O,CCCCC(CC)COS(=O)(=O)[O-].[Na+],4.15,-1.9580000000000002,3.256,-4.038,4.622
"2-Propenenitrile, 2-methyl-",126-98-7,CC(=C)C#N,C=C(C)C#N,-0.322,-0.5489999999999999,0.513,-4.6080000000000005,6.01
Chloroprene,126-99-8,ClC(=C)C=C,C=CC(=C)Cl,1.673,-1.78,1.729,-0.6629999999999999,9.561
Potassium acetate,127-08-2,[K+].CC([O-])=O,CC(=O)[O-].[K+],-1.7280000000000002,-0.29100000000000004,0.31,-4.796,7.652
Sodium acetate,127-09-3,[Na+].CC([O-])=O,CC(=O)[O-].[Na+],-1.888,-0.3,0.267,-4.788,2.117
"Ethene, tetrachloro-",127-18-4,ClC(Cl)=C(Cl)Cl,ClC(Cl)=C(Cl)Cl,4.27,-2.733,3.1830000000000003,0.094,2.933
Vitamine A acetate,127-47-9,CC(=O)OC/C=C(C)/C=C/C=C(C)/C=C/C1=C(C)CCCC1(C)C,CC(=O)OC/C=C(C)/C=C/C=C(C)/C=C/C1=C(C)CCCC1(C)C,3.555,-4.114,5.867000000000001,-4.776,8.442
"3-Buten-2-one, 3-methyl-4-(2,6,6-trimethyl-2-cyclohexen-1-yl",127-51-5,CC(=O)C(\C)=C/C1C(=CCCC1(C)C)C,CC(=O)/C(C)=C\C1C(C)=CCCC1(C)C,4.211,-3.602,3.897,-4.234,9.85
"Benzenesulfonamide, N-chloro-4-methyl-, sodium salt",127-65-1,[Na+].Cc1ccc(cc1)[S](=O)(=O)[N-]Cl,Cc1ccc(S(=O)(=O)[N-]Cl)cc1.[Na+],2.205,-2.386,2.843,-8.472999999999999,2.754
Sodium m-nitrobenzenesulfonate,127-68-4,[Na+].[O-][N+](=O)c1cccc(c1)[S]([O-])(=O)=O,O=[N+]([O-])c1cccc(S(=O)(=O)[O-])c1.[Na+],1.591,-1.98,1.254,-8.552999999999999,4.032
2(10)-Pinene,127-91-3,CC1(C)C2CCC(=C)C1C2,C=C1CCC2CC1C2(C)C,4.684,-4.496,5.046,-0.645,6.761
Sodium dimethyldithiocarbamate,128-04-1,[Na+].CN(C)C([S-])=S,CN(C)C(=S)[S-].[Na+],-0.8959999999999999,-1.2990000000000002,0.955,-5.934,2.143
"2,6-Di-tert-butyl-p-cresol",128-37-0,Cc1cc(c(O)c(c1)C(C)(C)C)C(C)(C)C,Cc1cc(C(C)(C)C)c(O)c(C(C)(C)C)c1,5.5,-4.698,4.397,-3.542,11.77
"Phenol, 2,6-bis(1,1-dimethylethyl)-",128-39-2,CC(C)(C)c1cccc(c1O)C(C)(C)C,CC(C)(C)c1cccc(C(C)(C)C)c1O,5.313,-4.364,4.338,-3.5589999999999997,11.853
"Saccharin, sodium deriv.",128-44-9,[Na+].[O-][S]1(=NC(=O)c2ccccc12)=O,O=C1N=S(=O)([O-])c2ccccc21.[Na+],0.155,-2.4659999999999997,1.013,-8.824,2.123
"3,3'-Dihydroxy-4,4'-methylenedi(2-naphthoic acid)",130-85-8,OC(=O)c1cc2ccccc2c(Cc3c(O)c(cc4ccccc34)C(O)=O)c1O,O=C(O)c1cc2ccccc2c(Cc2c(O)c(C(=O)O)cc3ccccc23)c1O,-0.113,-4.624,4.31,-10.380999999999998,2.754
"9,10-Anthracenedione, 2-chloro-",131-09-9,Clc1ccc2C(=O)c3ccccc3C(=O)c2c1,O=C1c2ccccc2C(=O)c2cc(Cl)ccc21,3.357,-4.435,4.145,-8.071,8.179
Dimethyl phthalate,131-11-3,COC(=O)c1ccccc1C(=O)OC,COC(=O)c1ccccc1C(=O)OC,2.454,-3.2680000000000002,1.828,-6.72,2.135
Diallyl phthalate,131-17-9,C=CCOC(=O)c1ccccc1C(=O)OCC=C,C=CCOC(=O)c1ccccc1C(=O)OCC=C,3.3710000000000004,-4.489,3.298,-6.131,5.633
"Methanone, (2-hydroxy-4-methoxyphenyl)phenyl-",131-57-7,COc1ccc(c(O)c1)C(=O)c2ccccc2,COc1ccc(C(=O)c2ccccc2)c(O)c1,3.2510000000000003,-3.8939999999999997,3.542,-8.594,8.649
"1-Propanamine,N,N-dimethyl-3-((1-phenylmethyl)-1H-indazol-3-yl)oxy)-,monohydrochloride",132-69-4,[H+].[Cl-].CN(C)CCCOc1nn(Cc2ccccc2)c3ccccc13,CN(C)CCCOc1nn(Cc2ccccc2)c2ccccc12.[Cl-].[H+],2.313,-4.1419999999999995,4.097,-7.308,9.031
Phenoxymethylpenicillin potassium,132-98-9,[K+].CC1(C)S[C@@H]2[C@H](NC(=O)COc3ccccc3)C(=O)N2[C@H]1C([O-])=O,CC1(C)S[C@@H]2[C@H](NC(=O)COc3ccccc3)C(=O)N2[C@H]1C(=O)[O-].[K+],2.38,-3.0189999999999997,2.194,-11.029000000000002,3.986
"Benzenethiol, pentachloro-",133-49-3,Sc1c(Cl)c(Cl)c(Cl)c(Cl)c1Cl,Sc1c(Cl)c(Cl)c(Cl)c(Cl)c1Cl,4.967,-6.148,5.577000000000001,-4.397,3.845
Methyl 2-aminobenzoate,134-20-3,COC(=O)c1ccccc1N,COC(=O)c1ccccc1N,1.2919999999999998,-2.276,1.645,-8.372,2.993
1-Naphthylamine,134-32-7,Nc1cccc2ccccc12,Nc1cccc2ccccc12,1.685,-3.009,2.318,-6.7620000000000005,4.534
"m-Toluamide, N,N-diethyl-",134-62-3,CCN(CC)C(=O)c1cccc(C)c1,CCN(CC)C(=O)c1cccc(C)c1,2.877,-3.6489999999999996,2.167,-7.001,2.017
Amfepramone hydrochloride,134-80-5,[H+].[Cl-].CCN(CC)C(C)C(=O)c1ccccc1,CCN(CC)C(C)C(=O)c1ccccc1.[Cl-].[H+],1.1840000000000002,-3.5869999999999997,2.271,-6.47,7.94
2-Naphthol,135-19-3,Oc1ccc2ccccc2c1,Oc1ccc2ccccc2c1,3.131,-3.194,2.588,-7.042000000000001,10.232
"Benzamide, N,N'-(dithiodi-2,1-phenylene)bis-",135-57-9,O=C(Nc1ccccc1SSc2ccccc2NC(=O)c3ccccc3)c4ccccc4,O=C(Nc1ccccc1SSc1ccccc1NC(=O)c1ccccc1)c1ccccc1,3.688,-4.814,4.645,-9.174,3.706
sec-Butylbenzene,135-98-8,CCC(C)c1ccccc1,CCC(C)c1ccccc1,4.157,-3.7760000000000002,4.322,-0.5429999999999999,2.519
"Zinc, bis-(dibutyldithiocarbamate)",136-23-2,[Zn++].CCCCN(CCCC)C([S-])=S.CCCCN(CCCC)C([S-])=S,CCCCN(CCCC)C(=S)[S-].CCCCN(CCCC)C(=S)[S-].[Zn+2],4.34,-4.297,4.517,-4.284,10.13
Sodium dibutyldithiocarbamate,136-30-1,[Na+].CCCCN(CCCC)C([S-])=S,CCCCN(CCCC)C(=S)[S-].[Na+],4.038,-4.216,4.253,-4.255,5.286
"Hexanoic acid, 2-ethyl-, calcium salt",136-51-6,[Ca++].CCCCC(CC)C([O-])=O.CCCCC(CC)C([O-])=O,CCCCC(CC)C(=O)[O-].CCCCC(CC)C(=O)[O-].[Ca+2],3.645,-2.892,3.4,-2.707,9.67
"Hexanoic acid, 2-ethyl-, cobalt (2+) salt",136-52-7,[Co++].CCCCC(CC)C([O-])=O.CCCCC(CC)C([O-])=O,CCCCC(CC)C(=O)[O-].CCCCC(CC)C(=O)[O-].[Co+2],3.642,-2.904,3.354,-2.67,10.797
"Hexanoic acid, 2-ethyl-, zinc salt",136-53-8,[Zn++].CCCCC(CC)C([O-])=O.CCCCC(CC)C([O-])=O,CCCCC(CC)C(=O)[O-].CCCCC(CC)C(=O)[O-].[Zn+2],3.669,-2.892,3.414,-2.747,9.877
"1H-Imidazole-1-ethanol, 4,5-dihydro-2-undecyl-",136-99-2,CCCCCCCCCCCC1=NCCN1CCO,CCCCCCCCCCCC1=NCCN1CCO,2.552,-3.9560000000000004,4.6560000000000015,-5.502000000000001,8.595
2-Aminobenzenethiol,137-07-5,Nc1ccccc1S,Nc1ccccc1S,0.569,-2.032,1.518,-8.412,7.355
"calcium pantothenate , D-form",137-08-6,[Ca++].CC(C)(CO)C(O)C(=O)NCCC([O-])=O.CC(C)(CO)C(O)C(=O)NCCC([O-])=O,CC(C)(CO)C(O)C(=O)NCCC(=O)[O-].CC(C)(CO)C(O)C(=O)NCCC(=O)[O-].[Ca+2],0.097,-1.113,-0.42,-12.806,10.066
"Glycine, N-methyl-N-(1-oxododecyl)-, sodium salt",137-16-6,[Na+].CCCCCCCCCCCC(=O)N(C)CC([O-])=O,CCCCCCCCCCCC(=O)N(C)CC(=O)[O-].[Na+],2.744,-3.4760000000000004,4.377,-5.659,5.318
"Taurine, N-methyl-N-oleoyl-, sodium salt",137-20-2,[Na+].CCCCCCCC\C=C/CCCCCCCC(=O)N(C)CC[S]([O-])(=O)=O,CCCCCCCC/C=C\CCCCCCCC(=O)N(C)CCS(=O)(=O)[O-].[Na+],3.882,-3.737,4.779,-5.47,6.604
"Disulfide, bis(dimethylthiocarbamoyl)-",137-26-8,CN(C)C(=S)SSC(=S)N(C)C,CN(C)C(=S)SSC(=S)N(C)C,0.624,-2.214,1.4980000000000002,-7.242000000000001,5.331
"Zinc, bis-(dimethyldithiocarbamate)",137-30-4,[Zn++].CN(C)C([S-])=S.CN(C)C([S-])=S,CN(C)C(=S)[S-].CN(C)C(=S)[S-].[Zn+2],-0.755,-1.2429999999999999,1.107,-6.125,8.451
"1-Butanol, 2-methyl-",137-32-6,CCC(C)CO,CCC(C)CO,1.033,-1.036,1.207,-3.696,13.053
"Propanoic acid, sodium salt",137-40-6,[Na+].CCC([O-])=O,CCC(=O)[O-].[Na+],-0.597,-0.631,0.643,-4.172,2.652
Sodium methyldithiocarbamate,137-42-8,[Na+].CNC([S-])=S,CNC(=S)[S-].[Na+],-0.495,-0.995,0.833,-6.105,-2.682
"Cyclohexane, 1-methyl-4-(1-methylethenyl)-",138-86-3,CC1CCC(CC1)C(C)=C,C=C(C)C1CCC(C)CC1,4.815,-3.49,4.37,1.057,9.032
"Benzenemethanaminium, N-dodecyl-N,N-dimethyl-, chloride",139-07-1,[Cl-].CCCCCCCCCCCC[N+](C)(C)Cc1ccccc1,CCCCCCCCCCCC[N+](C)(C)Cc1ccccc1.[Cl-],1.948,-5.251,2.185,-1.6980000000000002,7.707
"Benzenemethanaminium, N,N-dimethyl-N-tetradecyl-, chloride",139-08-2,[Cl-].CCCCCCCCCCCCCC[N+](C)(C)Cc1ccccc1,CCCCCCCCCCCCCC[N+](C)(C)Cc1ccccc1.[Cl-],2.321,-5.435,3.056,-1.58,7.746
Disodium dihydrogen E.D.T.A.,139-33-3,[Na+].[Na+].OC(=O)CN(CCN(CC(O)=O)CC([O-])=O)CC([O-])=O,O=C([O-])CN(CCN(CC(=O)[O-])CC(=O)O)CC(=O)O.[Na+].[Na+],-2.151,-1.1540000000000001,-2.665,-11.793,5.333
"Glycine, N-(carboxymethyl)-aminoethyl-N'-(2-hydroxyethyl)",139-89-9,[Na+].[Na+].[Na+].OCCN(CCN(CC([O-])=O)CC([O-])=O)CC([O-])=O,O=C([O-])CN(CCO)CCN(CC(=O)[O-])CC(=O)[O-].[Na+].[Na+].[Na+],-0.84,-1.423,-1.218,-10.415,4.955
"Sulfuric acid, monododecyl ester, compd. With 2,2',2""-nitrilotris[ethanol]",139-96-8,CCCCCCCCCCCCO[S](O)(=O)=O.OCCN(CCO)CCO,CCCCCCCCCCCCOS(=O)(=O)O.OCCN(CCO)CCO,1.626,-1.501,-0.335,-8.041,5.733
"Glycine, N,N-bis[2-[bis(carboxymethyl)amino]ethyl]-, pentasodium salt",140-01-2,[Na+].[Na+].[Na+].[Na+].[Na+].[O-]C(=O)CN(CCN(CC([O-])=O)CC([O-])=O)CCN(CC([O-])=O)CC([O-])=O,O=C([O-])CN(CCN(CC(=O)[O-])CC(=O)[O-])CCN(CC(=O)[O-])CC(=O)[O-].[Na+].[Na+].[Na+].[Na+].[Na+],-0.696,-1.88,-0.5710000000000001,-10.158999999999999,4.675
"Ethanol, 2,2',2"",2""'-(1,2-ethanediyldinitrilo)tetrakis-",140-07-8,OCCN(CCO)CCN(CCO)CCO,OCCN(CCO)CCN(CCO)CCO,-1.849,-0.7240000000000001,-1.756,-11.749,7.906
"Ethanol, 2-chloro-, phosphite (3:1)",140-08-9,OCCCl.OCCCl.OCCCl.OP(O)O,OCCCl.OCCCl.OCCCl.OP(O)O,-0.146,0.5479999999999999,-0.37,-9.802,7.105
Benxyl acetate,140-11-4,CC(=O)OCc1ccccc1,CC(=O)OCc1ccccc1,2.192,-2.3040000000000003,1.742,-4.2989999999999995,6.321
Benzeneacetonitrile,140-29-4,N#CCc1ccccc1,N#CCc1ccccc1,2.389,-2.396,1.45,-4.552,6.323
"Piperazine, 1-(2-aminoethyl)-",140-31-8,NCCN1CCNCC1,NCCN1CCNCC1,-2.324,-1.031,-1.242,-10.061,9.835
"Phenol, 4-(1,1,3,3-tetramethylbutyl)-",140-66-9,CC(C)(C)CC(C)(C)c1ccc(O)cc1,CC(C)(C)CC(C)(C)c1ccc(O)cc1,4.583,-4.471,4.612,-3.529,10.041
"Anisole, p-allyl-",140-67-0,COc1ccc(CC=C)cc1,C=CCc1ccc(OC)cc1,3.654,-3.221,3.3280000000000003,-3.6,6.884
Ethyl acrylate,140-88-5,CCOC(=O)C=C,C=CC(=O)OCC,1.009,-1.2409999999999999,1.466,-4.346,10.401
"Urea, 1,3-bis(hydroxymethyl)-",140-95-4,OCNC(=O)NCO,O=C(NCO)NCO,-1.426,0.8440000000000001,-1.287,-15.685,10.198
"2-Butenedioic acid (2E)-, iron(2+) salt (1:1)",141-01-5,[Fe++].[O-]C(=O)\C=C/C([O-])=O,O=C([O-])/C=C\C(=O)[O-].[Fe+2],-0.89,-0.826,0.7090000000000001,-8.878,11.518
bis(2-ethylhexyl) fumarate,141-02-6,CCCCC(CC)COC(=O)/C=C/C(=O)OCC(CC)CCCC,CCCCC(CC)COC(=O)/C=C/C(=O)OCC(CC)CCCC,5.077,-4.423,6.396,-3.438,5.634
Diethyl maleate,141-05-9,CCOC(=O)\C=C/C(=O)OCC,CCOC(=O)/C=C\C(=O)OCC,1.899,-1.84,2.136,-6.935,7.382
"3,5,9-Undecatrien-2-one, 6,10-dimethyl-",141-10-6,CC(C)=CCCC(C)=CC=CC(C)=O,CC(=O)C=CC=C(C)CCC=C(C)C,3.009,-3.028,4.185,-4.045,10.85
"Adipic acid, bis(2-(2-butoxyethoxy)ethyl) ester",141-17-3,CCCCOCCOCCOC(=O)CCCCC(=O)OCCOCCOCCCC,CCCCOCCOCCOC(=O)CCCCC(=O)OCCOCCOCCCC,3.711,-2.929,2.648,-5.778,11.171
"Octadecanoic acid, 12-hydroxy-, methyl ester",141-23-1,CCCCCCC(O)CCCCCCCCCCC(=O)OC,CCCCCCC(O)CCCCCCCCCCC(=O)OC,4.335,-4.194,6.028,-3.509,5.93
"9-Octadecenoic acid, 12-hydroxy-, methyl ester, (9Z,12R)-",141-24-2,CCCCCC[C@@H](O)C\C=C/CCCCCCCC(=O)OC,CCCCCC[C@@H](O)C/C=C\CCCCCCCC(=O)OC,4.23,-3.78,5.778,-4.49,5.255
Butyl acrylate,141-32-2,CCCCOC(=O)C=C,C=CC(=O)OCCCC,3.076,-2.282,2.254,-3.866,10.002
"Ethanol, 2-amino-",141-43-5,NCCO,NCCO,-5.13,0.32,-1.366,-10.411,8.959
Sodium formate,141-53-7,[Na+].[O-]C=O,O=C[O-].[Na+],-1.55,-0.342,0.424,-4.314,0.041
Ethyl acetate,141-78-6,CCOC(C)=O,CCOC(C)=O,0.032,-0.45299999999999996,0.4970000000000001,-3.198,12.75
"3-Penten-2-one, 4-methyl-(Mesityl oxide)",141-79-7,CC(C)=CC(C)=O,CC(=O)C=C(C)C,-0.313,-1.34,1.46,-4.888999999999999,13.399
Ethyl acetoacetate,141-97-9,CCOC(=O)CC(C)=O,CCOC(=O)CC(C)=O,0.302,-0.777,0.141,-6.39,10.357
Bis-2-ethylhexyl maleate,142-16-5,CCCCC(CC)COC(=O)\C=C/C(=O)OCC(CC)CCCC,CCCCC(CC)COC(=O)/C=C\C(=O)OCC(CC)CCCC,5.154,-4.4860000000000015,6.47,-3.53,6.215
"Diallyl 2,2'-oxydiethyl dicarbonate",142-22-3,C=CCOC(=O)OCCOCCOC(=O)OCC=C,C=CCOC(=O)OCCOCCOC(=O)OCC=C,3.265,-2.886,1.854,-5.272,7.303
"3-Hexyne-2,5-diol, 2,5-dimethyl-",142-30-3,CC(C)(O)C#CC(C)(C)O,CC(C)(O)C#CC(C)(C)O,1.5319999999999998,-0.877,0.95,-6.946000000000001,14.279
Sodium octyl sulphate,142-31-4,[Na+].CCCCCCCCO[S]([O-])(=O)=O,CCCCCCCCOS(=O)(=O)[O-].[Na+],4.078,-2.0669999999999997,3.415,-4.393,4.412
Sodium hydrogen glutamate,142-47-2,[Na+].N[C@@H](CCC([O-])=O)C(O)=O,N[C@@H](CCC(=O)[O-])C(=O)O.[Na+],-1.628,-0.6609999999999999,-2.804,-12.068,5.495
Magnesium acetate,142-72-3,[Mg++].CC([O-])=O.CC([O-])=O,CC(=O)[O-].CC(=O)[O-].[Mg+2],-1.989,-0.11900000000000001,0.395,-4.882,9.383
"Acetic acid, iminodi-",142-73-4,OC(=O)CNCC(O)=O,O=C(O)CNCC(=O)O,-3.973,0.44799999999999995,-4.399,-13.855,5.791
"9-Octadecenoic acid (9Z)-, butyl ester",142-77-8,CCCCCCCC\C=C/CCCCCCCC(=O)OCCCC,CCCCCCCC/C=C\CCCCCCCC(=O)OCCCC,5.419,-4.947,7.779,-1.9980000000000002,6.648
"Dodecanamide, N-(2-hydroxyethyl)-",142-78-9,CCCCCCCCCCCC(=O)NCCO,CCCCCCCCCCCC(=O)NCCO,3.019,-3.2889999999999997,3.443,-6.294,7.618
Heptane,142-82-5,CCCCCCC,CCCCCCC,4.851,-2.719,4.2360000000000015,1.9180000000000001,6.284
Dipropylamine,142-84-7,CCCNCCC,CCCNCCC,-0.8390000000000001,-1.611,1.695,-3.908,10.979
"Sulfuric acid, monodecyl ester, sodium salt",142-87-0,[Na+].CCCCCCCCCCO[S]([O-])(=O)=O,CCCCCCCCCCOS(=O)(=O)[O-].[Na+],4.405,-2.6639999999999997,4.441,-3.96,4.803
Dodecyl methacrylate,142-90-5,CCCCCCCCCCCCOC(=O)C(C)=C,C=C(C)C(=O)OCCCCCCCCCCCC,5.271,-4.834,7.213999999999999,-2.447,7.442
Isopropyl palmitate,142-91-6,CCCCCCCCCCCCCCCC(=O)OC(C)C,CCCCCCCCCCCCCCCC(=O)OC(C)C,5.612,-5.001,8.09,-1.454,8.751
"Butane, 1,1'-oxybis-",142-96-1,CCCCOCCCC,CCCCOCCCC,4.474,-2.244,2.984,-1.8330000000000002,11.144
Lauric acid,143-07-7,CCCCCCCCCCCC(O)=O,CCCCCCCCCCCC(=O)O,2.338,-3.57,4.752,-3.4989999999999997,4.912
1-Nonanol,143-08-8,CCCCCCCCCO,CCCCCCCCCO,3.305,-2.8080000000000003,3.63,-2.909,7.546
"Oleic acid, potassium salt",143-18-0,[K+].CCCCCCCC\C=C/CCCCCCCC([O-])=O,CCCCCCCC/C=C\CCCCCCCC(=O)[O-].[K+],4.728,-4.4719999999999995,7.523,-2.325,6.703
"Triethyleneglycol, monobutylether",143-22-6,CCCCOCCOCCOCCO,CCCCOCCOCCOCCO,1.495,-1.166,0.08,-6.882000000000001,13.691
"1,6-Hexanediamine, N-(6-aminohexy)-",143-23-7,NCCCCCCNCCCCCCN,NCCCCCCNCCCCCCN,-2.57,-3.355,-0.93,-6.66,11.209
1-Hexadecanamine,143-27-1,CCCCCCCCCCCCCCCCN,CCCCCCCCCCCCCCCCN,2.241,-5.21,6.049,-1.51,10.538
"9-Octadecen-1-ol, (9Z)-",143-28-2,CCCCCCCC\C=C/CCCCCCCCO,CCCCCCCC/C=C\CCCCCCCCO,4.413,-4.551,7.176,-2.37,6.446
"Methane, bis[2-(2-butoxyethoxy)ethoxy]-",143-29-3,CCCCOCCOCCOCOCCOCCOCCCC,CCCCOCCOCCOCOCCOCCOCCCC,3.052,-1.922,1.803,-5.906000000000001,14.3
Sodium cyanide,143-33-9,[Na+].[C-]#N,[C-]#N.[Na+],-0.204,-0.7709999999999999,0.633,-4.314,-8.359
"1,3-Pentanediol, 2,2,4-trimethyl-",144-19-4,CC(C)C(O)C(C)(C)CO,CC(C)C(O)C(C)(C)CO,0.494,-1.466,1.334,-9.052,11.068
"Phosphorous acid, phenyl ester, cyclic diester with pentaery",144-35-4,C1OP(OCC12COP(OC2)Oc3ccccc3)Oc4ccccc4,c1ccc(OP2OCC3(CO2)COP(Oc2ccccc2)OC3)cc1,2.424,-2.431,0.727,-8.247,3.505
"Acetic acid, fluoro-",144-49-0,OC(=O)CF,O=C(O)CF,-4.205,0.33799999999999997,-0.853,-8.611,3.454
Sodium hydrogencarbonate,144-55-8,[Na+].OC([O-])=O,O=C([O-])O.[Na+],-5.2120000000000015,0.23800000000000002,-0.738,-7.062,1.22
Oxalic acid,144-62-7,OC(=O)C(O)=O,O=C(O)C(=O)O,-8.177999999999999,0.78,-1.06,-14.465,3.539
"Copper, phthalocyaninato-",147-14-8,[Cu]1N2C3=NC4=NC(=Nc5n1c(N=C6N=C(N=C2c7ccccc37)c8ccccc68)c9ccccc59)c%10ccccc4%10,c1ccc2c(c1)C1=NC2=Nc2c3ccccc3c3n2[Cu]n2c(c4ccccc4c2=NC2=NC(=N3)c3ccccc32)=N1,3.274,-4.586,3.334,-8.626,5.438
Benzothiazole-2-thiol,149-30-4,Sc1sc2ccccc2n1,Sc1nc2ccccc2s1,2.763,-3.5269999999999997,2.595,-6.486000000000001,5.85
Sodium formaldehydesulfoxylate,149-44-0,O.O.[Na+].OC[S]([O-])=O,O.O.O=S([O-])CO.[Na+],-0.326,0.049,-0.066,-9.495,5.089
"Disodium 4,5-dihydroxybenzene-1,3-disulphonate",149-45-1,[Na+].[Na+].Oc1cc(cc(c1O)[S]([O-])(=O)=O)[S]([O-])(=O)=O,O=S(=O)([O-])c1cc(O)c(O)c(S(=O)(=O)[O-])c1.[Na+].[Na+],0.317,-1.486,0.976,-12.0,5.222
"Hexanoic acid, 2-ethyl-",149-57-5,CCCCC(CC)C(O)=O,CCCCC(CC)C(=O)O,0.927,-2.2880000000000003,2.418,-4.906000000000001,4.881
"Methane, trimethoxy-",149-73-5,COC(OC)OC,COC(OC)OC,-0.446,-0.135,0.036000000000000004,-4.875,10.63
"Silane, dichloromethylphenyl-",149-74-6,ClC(Cl)[SiH2]c1ccccc1,ClC(Cl)[SiH2]c1ccccc1,3.914,-3.8339999999999996,3.301,-3.0439999999999996,9.107
"Boric acid (H3BO3), triethyl ester",150-46-9,CCOB(OCC)OCC,CCOB(OCC)OCC,3.218,-1.102,1.087,-4.834,12.723
"Phosphorotrithious acid, tributyl ester",150-50-5,CCCCSP(SCCCC)SCCCC,CCCCSP(SCCCC)SCCCC,5.066,-5.292000000000002,5.976,-3.264,8.444
"Phenol, 4-methoxy-",150-76-5,COc1ccc(O)cc1,COc1ccc(O)cc1,2.0780000000000003,-1.9580000000000002,1.3430000000000002,-7.754,10.58
"Benzene, 1,4-dimethoxy-",150-78-7,COc1ccc(OC)cc1,COc1ccc(OC)cc1,3.0660000000000003,-2.349,2.064,-4.546,6.783
"Butanedioic acid, disodium salt",150-90-3,[Na+].[Na+].[O-]C(=O)CCC([O-])=O,O=C([O-])CCC(=O)[O-].[Na+].[Na+],-1.221,-0.88,0.275,-6.744,2.906
3-Aminopropiononitrile,151-18-8,NCCC#N,N#CCCN,-3.778,-0.428,-1.5930000000000002,-8.892000000000001,7.128