chemical_name,cas,smiles,canonical_smiles,log_p,log_s,kow,water-energy,pka
"Alcohols, C8-10",85566-12-7,CCCCCCCCCCO,CCCCCCCCCCO,3.5860000000000003,-3.227,4.147,-2.68,7.634
"Tridecylamine, branched and linear",86089-17-0,CCCC(CC)CCCCCCCN,CCCC(CC)CCCCCCCN,1.3019999999999998,-4.478,3.976,-1.058,10.352
"Perfluoro compounds, C5-18",86508-42-1,FC(F)(F)C(F)(F)C(F)(F)C(F)(F)C(F)(F)C(F)(F)C(F)(F)C(F)(F)C(F)(F)C(F)(F)F,FC(F)(F)C(F)(F)C(F)(F)C(F)(F)C(F)(F)C(F)(F)C(F)(F)C(F)(F)C(F)(F)C(F)(F)F,3.635,-4.934,6.0539999999999985,3.602,10.35
1-Deoxy-1-methyl(1-oxododecyl)amino-D-glucitol,87246-72-8,CCCCCCCCCCCC(=O)NC(C)[C@H](O)[C@@H](O)[C@H](O)[C@H](O)CO,CCCCCCCCCCCC(=O)NC(C)[C@H](O)[C@@H](O)[C@H](O)[C@H](O)CO,2.049,-2.085,1.102,-14.355,7.719
"3-Thiophenamine, N-(2-methoxy-1-methylethyl)-2,4-dimethyl-",87676-07-1,COCC(C)Nc1c(C)scc1C,COCC(C)Nc1c(C)csc1C,3.143,-3.237,2.74,-6.483,7.769
"Hexanol, acetate, branched and linear",88230-35-7,CCCCCCOC(C)=O,CCCCCCOC(C)=O,3.547,-2.194,2.736,-2.4330000000000003,10.208
"Propanol, (2-methoxymethylethoxy)-, acetate",88917-22-0,CCC(O)OCCCOC.CC(O)=O,CC(=O)O.CCC(O)OCCCOC,-1.7919999999999998,-0.247,-0.743,-7.404,7.657
"1,3,4-Thiadiazole, 2,5-bis(tert-nonyldithio)-",89347-09-1,CCCCCC(C)(C)CSSc1sc(SSCC(C)(C)CCCCC)nn1,CCCCCC(C)(C)CSSc1nnc(SSCC(C)(C)CCCCC)s1,4.949,-5.555,7.172999999999999,-2.6460000000000004,7.519
"2,4-Imidazolidinedione, 1,3-dichloro-5-ethyl-5-methyl-",89415-87-2,CCC1(C)N(Cl)C(=O)N(Cl)C1=O,CCC1(C)C(=O)N(Cl)C(=O)N1Cl,-0.195,-1.675,1.497,-9.66,3.879
"Benzenesulfonic acid, mono-C10-13-alkyl derivs., sodium salts",90194-45-9,[Na+].CCCCCCCCCC(CC)c1ccc(cc1)[S]([O-])(=O)=O,CCCCCCCCCC(CC)c1ccc(S(=O)(=O)[O-])cc1.[Na+],4.45,-4.803999999999999,6.759,-4.564,4.636
"Acetic acid, C6-8-branched alkyl esters",90438-79-2,CC(C)CCCCOC(C)=O,CC(=O)OCCCCC(C)C,3.61,-2.553,3.094,-1.9080000000000001,10.64
"Phenol, isopropylated",90480-88-9,CC(C)c1cccc(O)c1,CC(C)c1cccc(O)c1,3.92,-2.878,3.0780000000000003,-5.625,9.811
"Alkanes, C14-16",90622-46-1,CCCCCCCCCCCCCC,CCCCCCCCCCCCCC,5.407,-5.103,8.044,0.9359999999999999,6.873
"Alkanes, C7-10-iso-",90622-56-3,CCC(C)CC(C)C,CCC(C)CC(C)C,4.682,-3.1430000000000002,4.588,2.7239999999999998,9.594
"Alkanes, C9-12-iso-",90622-57-4,CCCCCCCCC(C)C,CCCCCCCCC(C)C,5.194,-4.279,6.228,1.607,7.257
"Alkanes, C11-15-iso-",90622-58-5,CCCC(C)CC(C)CC(C)CC,CCCC(C)CC(C)CC(C)CC,5.237,-4.332,6.657,2.546,8.627
"Nonanoic acid, sulfophenyl ester, sodium salt",91125-43-8,[Na+].CCCCCCCCC(=O)Oc1ccccc1[S]([O-])(=O)=O,CCCCCCCCC(=O)Oc1ccccc1S(=O)(=O)[O-].[Na+],3.584,-4.053,4.146,-5.902,5.512
"Phenol, 2-nonyl-, branched",91672-41-2,CCCC[C@H](CCC)Cc1ccccc1O,CCCC[C@H](CCC)Cc1ccccc1O,4.396,-4.6160000000000005,5.829,-3.202,9.468
"Hexane, branched and linear",92112-69-1,CCCCCC,CCCCCC,4.586,-2.291,3.888,2.186,6.252
"Alkenes, C15-18",93762-80-2,CCCCCC/C=C/CC/C=C/CCCC,CCCC/C=C/CC/C=C/CCCCCC,4.677,-4.511,7.226,-0.579,5.085
"Alkanes, C10-14",93924-07-3,CCCCCCCCCCCC,CCCCCCCCCCCC,5.331,-4.685,7.002999999999999,1.115,6.578
"Alkenes, C20-24 alpha-",93924-10-8,CCCCCCCCCCCCCCCCCCC=C,C=CCCCCCCCCCCCCCCCCCC,5.452000000000001,-5.807,9.854,0.364,7.227
"Alkenes, C24-28, alpha-",93924-11-9,CCCCCCCCCCCCCCCCCCCCCCCCC=C,C=CCCCCCCCCCCCCCCCCCCCCCCCC,5.537000000000001,-6.1560000000000015,10.79,0.237,7.51
"2-Propenoic acid, 2-[[2,2-bis[[(1-oxo-2-propenyl)oxy]methyl]butoxy]methyl]-2-ethyl-1,3-propanediyl ester",94108-97-1,CCC(COCC(CC)(COC(=O)C=C)COC(=O)C=C)(COC(=O)C=C)COC(=O)C=C,C=CC(=O)OCC(CC)(COCC(CC)(COC(=O)C=C)COC(=O)C=C)COC(=O)C=C,3.173,-4.168,3.337,-6.973,8.278
"Iron, compound with molybdenum (2:3)",94277-04-0,[Fe].[Fe].[Mo].[Mo].[Mo],[Fe].[Fe].[Mo].[Mo].[Mo],1.585,-1.396,2.51,-3.213,9.354
"Phenol, 4-[[4-(1-methylethoxy)phenyl]sulfonyl]-",95235-30-6,CC(C)Oc1ccc(cc1)[S](=O)(=O)c2ccc(O)cc2,CC(C)Oc1ccc(S(=O)(=O)c2ccc(O)cc2)cc1,3.59,-3.653,3.173,-10.142999999999999,8.184
"Bicyclo[3.1.1]heptanol, 2,6,6-trimethyl-",98510-89-5,CC1CCC2CC1(O)C2(C)C,CC1CCC2CC1(O)C2(C)C,3.0860000000000003,-3.7689999999999997,3.387,-4.67,6.498
"2-Propanamine, 1-methoxy-, (2S)-",99636-32-5,COC[C@H](C)N,COC[C@H](C)N,-3.537,-0.392,-0.374,-7.057,8.619
"Benzene, (1-methylpropyl)(1-phenylethyl)-",101646-62-2,CCC(C)c1ccccc1C(C)c2ccccc2,CCC(C)c1ccccc1C(C)c1ccccc1,4.505,-5.2170000000000005,5.9060000000000015,-2.31,4.439
"Benzene, (1-methylpropyl)(phenylmethyl)-",101646-63-3,CCC(C)c1ccccc1Cc2ccccc2,CCC(C)c1ccccc1Cc1ccccc1,4.4060000000000015,-4.92,5.72,-2.156,4.403
3-Methyl-3-methoxy butyl acetate,103429-90-9,COC(C)(C)CCOC(C)=O,COC(C)(C)CCOC(C)=O,2.03,-1.7990000000000002,0.923,-3.843,12.903
"Propane, oxybis[methoxy-",111109-77-4,CCC(OC)OC(CC)OC,CCC(OC)OC(CC)OC,1.416,-1.625,1.618,-4.218999999999999,12.402
"Phthalic acid, heptyl-nonyl, branched & linear esters",111381-89-6,CCCCCCCCCOC(=O)c1ccccc1C(=O)OCCCCCCC,CCCCCCCCCOC(=O)c1ccccc1C(=O)OCCCCCCC,5.159,-5.875,7.824,-3.885,5.922
"Phthalic acid, heptyl-undecyl, branched & linear esters",111381-90-9,CCCCCCCCCCCOC(=O)c1ccccc1C(=O)OCCCCCCC,CCCCCCCCCCCOC(=O)c1ccccc1C(=O)OCCCCCCC,5.215,-6.004,8.312999999999999,-3.656,6.151
"Phthalic acid, nonyl-undecyl, branched & linear esters",111381-91-0,CCCCCCCCCCCOC(=O)c1ccccc1C(=O)OCCCCCCCCC,CCCCCCCCCCCOC(=O)c1ccccc1C(=O)OCCCCCCCCC,5.261,-6.109,8.738999999999999,-3.455,6.344
"Ferrate(1-), [[N,N'-1,3-propanediylbis[N-[(carboxy-.kappa.O)methyl]glycinato-.kappa.N,.kappa.O]](4-)]-, ammonium, (OC-6-21)-",111687-36-6,[NH4+].[Fe+3].[O-]C(=O)CN(CCCN(CC([O-])=O)CC([O-])=O)CC([O-])=O,O=C([O-])CN(CCCN(CC(=O)[O-])CC(=O)[O-])CC(=O)[O-].[Fe+3].[NH4+],-0.416,-1.6369999999999998,-0.669,-10.079,9.196
"1,6-Hexanediaminium, N,N,N',N'-tetrabutyl-N,N'-diethyl-, dihydroxide",111960-92-0,[OH-].[OH-].CCCC[N+](CC)(CCCC)CCCCCC[N+](CC)(CCCC)CCCC,CCCC[N+](CC)(CCCC)CCCCCC[N+](CC)(CCCC)CCCC.[OH-].[OH-],-0.7340000000000001,-5.205,0.11,-1.895,8.914
Synthetic amorphous silica,112945-52-5,O=[Si]=O,O=[Si]=O,-5.921,0.73,0.552,-7.551,-0.951
"Phosphorodithioic acid, mixed O,O-bis(sec-Bu and isooctyl) esters",113706-14-2,CCC(C)O[P](S)(=S)OCCCCCC(C)C,CCC(C)OP(=S)(S)OCCCCCC(C)C,4.836,-4.239,5.896,-4.162,4.322
"Phosphorodithioic acid, mixed O,O-bis(sec-Bu and isooctyl) esters, zinc sal",113706-15-3,[Zn++].CCC(C)O[P]([S-])(=S)OCCCCCC(C)C.CCC(C)O[P]([S-])(=S)OCCCCCC(C)C,CCC(C)OP(=S)([S-])OCCCCCC(C)C.CCC(C)OP(=S)([S-])OCCCCCC(C)C.[Zn+2],4.8210000000000015,-4.6419999999999995,6.29,-3.03,7.107
"Benzoic acid, 2-hydroxy-, mono-C14-18-alkyl derivs., calcium salts (2:1)",114959-46-5,[Ca++].CCCCCCCCCCCCCCCCc1cccc(C([O-])=O)c1O.CCCCCCCCCCCCCCCCc2cccc(C([O-])=O)c2O,CCCCCCCCCCCCCCCCc1cccc(C(=O)[O-])c1O.CCCCCCCCCCCCCCCCc1cccc(C(=O)[O-])c1O.[Ca+2],4.737,-5.732,9.123,-3.839,9.409
"Sulfuric acid, mono-C10-16-alkyl esters, compds.with triethanolamine",117875-77-1,OCCN(CCO)CCO.O[S](O)(=O)=O,O=S(=O)(O)O.OCCN(CCO)CCO,-1.57,0.792,-4.107,-12.386,7.114
"Phosphorous trichloride, reaction products with 1,1'-biphenyl and 2,4-bis(1,1-dimethylethyl)phenol",119345-01-6,CC(C)(C)c1ccc(O)c(c1)C(C)(C)C.ClP(Cl)Cl.c2ccc(cc2)c3ccccc3,CC(C)(C)c1ccc(O)c(C(C)(C)C)c1.ClP(Cl)Cl.c1ccc(-c2ccccc2)cc1,4.575,-4.0089999999999995,4.058,-3.388,6.718
"Benzene, 1,1'-oxybis-, tetrapropylene derivs.",119345-02-7,CCCCCCCCCCCCc1ccc(Oc2ccccc2)cc1,CCCCCCCCCCCCc1ccc(Oc2ccccc2)cc1,4.416,-6.085,8.869,-2.4090000000000003,5.897
"Thiophene-3-ol, 2,4-dimethyl-",121144-97-6,Cc1scc(C)c1O,Cc1csc(C)c1O,2.218,-2.16,2.064,-6.261,7.109
Octadecadienoic acid,121250-47-3,CCCCCCCCCCCCCC=CC=CC(O)=O,CCCCCCCCCCCCCC=CC=CC(=O)O,2.426,-4.407,7.855,-3.383,4.593
"Oxazolidine, 3-(dichloroacetyl)-5-(2-furanyl)-2,2-dimethyl-, (5R)-",121776-57-6,CC1(C)O[C@H](CN1C(=O)C(Cl)Cl)c2occc2,CC1(C)O[C@@H](c2ccco2)CN1C(=O)C(Cl)Cl,2.383,-2.64,1.775,-9.207,4.777
"Benzene, ethenyl-, ar-bromo derivs.",125904-11-2,Brc1ccc(Br)c(C=C)c1,C=Cc1cc(Br)ccc1Br,4.2810000000000015,-5.126,4.187,-3.222,4.56
"Decanedioic acid, bis(2,2,6,6-tetramethyl-4-piperidinyl) ester, reaction productswith tert-Bu hydroperoxide and octane",129757-67-1,CCCCCCCC.CC(C)(C)OO.CC1(C)CC(CC(C)(C)N1)OC(=O)CCCCCCCCC(=O)OC2CC(C)(C)NC(C)(C)C2,CC(C)(C)OO.CC1(C)CC(OC(=O)CCCCCCCCC(=O)OC2CC(C)(C)NC(C)(C)C2)CC(C)(C)N1.CCCCCCCC,1.952,-3.1830000000000003,3.465,-4.107,10.253
"Benzene, mono C10-13 alkyl derivs.",129813-58-7,CCCCCCCCCCCc1ccccc1,CCCCCCCCCCCc1ccccc1,4.587,-5.4639999999999995,8.309,-0.7090000000000001,6.366
"Benzene, mono C12-14 alkyl derivs.",129813-59-8,CCCCCCCCCCCCCc1ccccc1,CCCCCCCCCCCCCc1ccccc1,4.705,-5.712999999999999,9.025,-0.659,6.578
"Alkanes, C12-14",129813-67-8,CCCCCCCCCCCC,CCCCCCCCCCCC,5.331,-4.685,7.002999999999999,1.115,6.578
"Benzoic acid, C9-11-branched alkyl esters",131298-44-7,CCCC(CC)CCCCOC(=O)c1ccccc1,CCCC(CC)CCCCOC(=O)c1ccccc1,4.84,-5.132999999999999,6.399,-2.436,5.102
"Alkenes, C24-54-branched and linear .alpha.-",131459-42-2,CCCCCCCCCCCCCCC(CCCCCCCCCCCC)CCCCCCCC=C,C=CCCCCCCCC(CCCCCCCCCCCC)CCCCCCCCCCCCCC,5.66,-6.348,11.429,0.415,7.492
"Propanol, [2-(1,1-dimethylethoxy)methylethoxy]-",132739-31-2,CCC(O)OCCCOC(C)(C)C,CCC(O)OCCCOC(C)(C)C,2.404,-1.5819999999999999,1.265,-6.096,16.501
"1,2-Ethanediaminium, N,N'-bis[2-[bis(2-hydroxyethyl)methylammonio]ethyl]-N,N'-bis(2-hydroxyethyl)-N,N'-dimethyl-, tetrachloride",138879-94-4,[Cl-].[Cl-].[Cl-].[Cl-].C[N+](CCO)(CCO)CC[N+](C)(CCO)CC[N+](C)(CCO)CC[N+](C)(CCO)CCO,C[N+](CCO)(CCO)CC[N+](C)(CCO)CC[N+](C)(CCO)CC[N+](C)(CCO)CCO.[Cl-].[Cl-].[Cl-].[Cl-],-2.5980000000000003,-2.553,-4.007,-8.142999999999999,7.393
"Benzene, (1-methylpropyl)(2-phenylethyl)-",142828-65-7,CCC(C)c1ccccc1CCc2ccccc2,CCC(C)c1ccccc1CCc1ccccc1,4.532,-4.935,5.822,-1.9669999999999999,5.053
"3-Pentanone, 1,2,4-trichloro-2-methyl-",145556-04-3,CC(Cl)C(=O)C(C)(Cl)CCl,CC(Cl)C(=O)C(C)(Cl)CCl,3.344,-2.5180000000000002,2.2840000000000003,-4.4910000000000005,10.845
"1-Propanamine, 3-(C11-14-isoalkyloxy) derivs., C13-rich",151789-06-9,CC(C)CCCCCCCCCCOCCCN,CC(C)CCCCCCCCCCOCCCN,1.9,-4.402,4.939,-2.81,10.174
"1,3-Propanediamine, N-[3-(C11-14-isoalkyloxy)propyl] derivs., C13-rich",151789-07-0,CC(C)CCCCCCCCCCOCCCNCCCN,CC(C)CCCCCCCCCCOCCCNCCCN,0.831,-4.235,4.033,-4.245,10.067
"Propane, 2-(difluoromethoxymethyl)-1,1,1,2,3,3,3-heptafluoro-",163702-08-7,FC(F)OCC(F)(C(F)(F)F)C(F)(F)F,FC(F)OCC(F)(C(F)(F)F)C(F)(F)F,4.393,-3.699,2.99,0.877,11.248
"Phonol, 4-dodecyl-, branched",210555-94-5,CCC(C)CC(C)CC(C)CCc1ccc(O)cc1,CCC(C)CC(C)CC(C)CCc1ccc(O)cc1,4.493,-5.062,6.476,-2.072,9.895
"1-Propanamine, 3-(C9-11-isoalkyloxy) derivs., C10-rich",218141-16-3,CC(C)CCCCCCCOCCCN,CC(C)CCCCCCCOCCCN,1.113,-3.7739999999999996,3.4210000000000003,-3.265,9.988