chemical_name,cas,smiles,canonical_smiles,log_p,log_s,kow,water-energy,pka
D.D.T.,50-29-3,Clc1ccc(cc1)C(c2ccc(Cl)cc2)C(Cl)(Cl)Cl,Clc1ccc(C(c2ccc(Cl)cc2)C(Cl)(Cl)Cl)cc1,5.021,-6.742999999999999,6.2810000000000015,-3.8169999999999997,11.892
D-Glucitol,50-70-4,OC[C@@H](O)[C@@H](O)[C@H](O)[C@@H](O)CO,OC[C@H](O)[C@@H](O)[C@H](O)[C@H](O)CO,-2.144,0.561,-3.462,-23.121,6.28
Aspirin,50-78-2,CC(=O)Oc1ccccc1C(O)=O,CC(=O)Oc1ccccc1C(=O)O,-0.947,-2.434,1.188,-8.482999999999999,3.623
L-Ascorbic acid,50-81-7,OCC(O)C1OC(=C(O)C1=O)O,O=C1C(O)=C(O)OC1C(O)CO,-1.083,-0.049,-2.063,-15.229000000000001,6.023
D-Glucose,50-99-7,OC[C@@H](O)[C@@H](O)[C@H](O)[C@@H](O)C=O,O=C[C@H](O)[C@@H](O)[C@H](O)[C@H](O)CO,-2.011,0.46799999999999997,-3.537,-23.087,7.241
"Phenol, 2,4-dinitro-",51-28-5,Oc1ccc(cc1[N+]([O-])=O)[N+]([O-])=O,O=[N+]([O-])c1ccc(O)c([N+](=O)[O-])c1,0.8759999999999999,-2.306,1.625,-8.606,4.525
Furosemide,54-31-9,N[S](=O)(=O)c1cc(C(O)=O)c(NCc2occc2)cc1Cl,NS(=O)(=O)c1cc(C(=O)O)c(NCc2ccco2)cc1Cl,-0.279,-2.8169999999999997,1.97,-13.144,5.145
Fenthion,55-38-9,CO[P](=S)(OC)Oc1ccc(SC)c(C)c1,COP(=S)(OC)Oc1ccc(SC)c(C)c1,4.697,-4.577,4.368,-5.779,-0.199
Chlorhexidine,55-56-1,NC(Nc1ccc(Cl)cc1)=NC(N)=NCCCCCCN=C(N)N=C(N)Nc2ccc(Cl)cc2,NC(=NCCCCCCN=C(N)N=C(N)Nc1ccc(Cl)cc1)N=C(N)Nc1ccc(Cl)cc1,1.987,-3.7739999999999996,2.392,-11.573,10.103
Nitroglycerin,55-63-0,[O-][N+](=O)OCC(CO[N+]([O-])=O)O[N+]([O-])=O,O=[N+]([O-])OCC(CO[N+](=O)[O-])O[N+](=O)[O-],-0.961,-1.9409999999999998,1.834,-5.888999999999999,7.281
"Methane, tetrachloro-",56-23-5,ClC(Cl)(Cl)Cl,ClC(Cl)(Cl)Cl,4.924,-2.481,2.756,-0.131,12.905
"Distannoxane, hexabutyl-",56-35-9,CCCC[Sn](CCCC)(CCCC)O[Sn](CCCC)(CCCC)CCCC,CCCC[Sn](CCCC)(CCCC)O[Sn](CCCC)(CCCC)CCCC,5.519,-5.5889999999999995,8.705,-2.479,6.211
Parathion,56-38-2,CCO[P](=S)(OCC)Oc1ccc(cc1)[N+]([O-])=O,CCOP(=S)(OCC)Oc1ccc([N+](=O)[O-])cc1,4.399,-4.36,3.682,-6.765,4.955
Glycine,56-40-6,NCC(O)=O,NCC(=O)O,-4.433,0.6920000000000001,-3.643,-12.64,7.076
Glycerol,56-81-5,OCC(O)CO,OCC(O)CO,-2.492,0.905,-1.707,-14.573,5.568
L-Aspartic acid,56-84-8,N[C@@H](CC(O)=O)C(O)=O,N[C@@H](CC(=O)O)C(=O)O,-4.72,0.18,-4.227,-15.005,5.702
Glutamic acid,56-86-0,N[C@@H](CCC(O)=O)C(O)=O,N[C@@H](CCC(=O)O)C(=O)O,-3.15,-0.182,-3.917,-14.07,6.092
"Benzenemethanaminium, N,N,N-trimethyl-, chloride",56-93-9,[Cl-].C[N+](C)(C)Cc1ccccc1,C[N+](C)(C)Cc1ccccc1.[Cl-],-0.335,-3.103,-2.193,-2.7880000000000003,9.322
Palmitic acid,57-10-3,CCCCCCCCCCCCCCCC(O)=O,CCCCCCCCCCCCCCCC(=O)O,3.29,-4.468999999999999,6.897,-2.83,5.168
Stearic acid,57-11-4,CCCCCCCCCCCCCCCCCC(O)=O,CCCCCCCCCCCCCCCCCC(=O)O,3.631,-4.784,7.665,-2.58,5.288
Urea,57-13-6,NC(N)=O,NC(N)=O,-1.27,1.547,-2.302,-14.115,12.918
Phenytoin,57-41-0,O=C1NC(=O)C(N1)(c2ccccc2)c3ccccc3,O=C1NC(=O)C(c2ccccc2)(c2ccccc2)N1,2.137,-3.096,2.142,-12.005999999999998,6.777
D-Fructose,57-48-7,OC[C@@H](O)[C@@H](O)[C@H](O)C(=O)CO,O=C(CO)[C@@H](O)[C@H](O)[C@H](O)CO,-1.859,0.643,-2.669,-21.031999999999996,7.462
Sucrose,57-50-1,OC[C@H]1O[C@H](O[C@]2(CO)O[C@H](CO)[C@@H](O)[C@@H]2O)[C@H](O)[C@@H](O)[C@@H]1O,OC[C@H]1O[C@H](O[C@]2(CO)O[C@H](CO)[C@@H](O)[C@@H]2O)[C@H](O)[C@@H](O)[C@@H]1O,-1.66,0.251,-3.766,-20.997,5.859
"1,2-Propanediol",57-55-6,CC(O)CO,CC(O)CO,-1.76,0.42200000000000004,-0.8859999999999999,-11.07,11.553
cholesterol,57-88-5,CC(C)CCC[C@@H](C)[C@H]1CC[C@H]2[C@@H]3CC=C4C[C@@H](O)CC[C@]4(C)[C@H]3CC[C@]12C,CC(C)CCC[C@@H](C)[C@H]1CC[C@H]2[C@@H]3CC=C4C[C@@H](O)CC[C@]4(C)[C@H]3CC[C@@]21C,4.083,-4.3210000000000015,6.06,-3.562,5.149
Caffeine,58-08-2,Cn1cnc2N(C)C(=O)N(C)C(=O)c12,Cn1c(=O)c2c(ncn2C)n(C)c1=O,-0.336,-1.256,-0.184,-14.677999999999999,4.842
Chlordiazepoxide,58-25-3,CN=C1CN(O)C(=C2C=C(Cl)C=CC2=N1)c3ccccc3,CN=C1CN(O)C(c2ccccc2)=c2cc(Cl)ccc2=N1,2.613,-3.352,2.503,-8.72,4.842
Dipyridamole,58-32-2,OCCN(CCO)c1nc(N2CCCCC2)c3nc(nc(N4CCCCC4)c3n1)N(CCO)CCO,OCCN(CCO)c1nc(N2CCCCC2)c2nc(N(CCO)CCO)nc(N3CCCCC3)c2n1,3.261,-3.5380000000000003,3.08,-11.099,6.237
Theophylline,58-55-9,CN1C(=O)N(C)c2nc[nH]c2C1=O,Cn1c(=O)c2[nH]cnc2n(C)c1=O,-0.405,-1.185,-0.159,-16.332,9.614
Pyridoxine hydrochloride,58-56-0,[H+].[Cl-].Cc1ncc(CO)c(CO)c1O,Cc1ncc(CO)c(CO)c1O.[Cl-].[H+],0.251,-1.0270000000000001,-0.292,-10.979000000000001,6.824
DL-Methionine,59-51-8,CSCCC(N)C(O)=O,CSCCC(N)C(=O)O,-1.137,-0.937,-2.086,-11.190999999999999,7.049
Nicotinic acid,59-67-6,OC(=O)c1cccnc1,O=C(O)c1cccnc1,-1.786,-1.189,0.073,-10.594000000000001,3.688
E.D.T.A,60-00-4,OC(=O)CN(CCN(CC(O)=O)CC(O)=O)CC(O)=O,O=C(O)CN(CCN(CC(=O)O)CC(=O)O)CC(=O)O,-3.687,-0.669,-4.496,-13.779000000000002,6.494
Phenethyl alcohol,60-12-8,OCCc1ccccc1,OCCc1ccccc1,1.747,-2.079,1.555,-5.3389999999999995,5.742
"Ethanol, 2-mercapto-",60-24-2,OCCS,OCCS,-1.725,0.154,-0.07,-8.934,8.893
"Ethane, 1,1'-oxybis",60-29-7,CCOCC,CCOCC,1.513,-0.512,0.599,-1.713,12.95
Linoleic acid,60-33-3,CCCCC/C=C\C\C=C/CCCCCCCC(O)=O,CCCCC/C=C\C/C=C\CCCCCCCC(=O)O,2.834,-3.952,6.28,-3.855,4.944
Dimethoate,60-51-5,CNC(=O)CS[P](=S)(OC)OC,CNC(=O)CSP(=S)(OC)OC,0.619,-1.935,0.609,-8.911,1.351
Phenazone,60-80-0,O=C1CC=Cc2nc3ccccc3nc12,O=C1CC=Cc2nc3ccccc3nc21,2.084,-2.436,2.209,-8.802,2.477
Amitrole,61-82-5,Nc1[nH]ncn1,Nc1ncn[nH]1,-1.22,0.013000000000000001,-0.5539999999999999,-16.267,5.299
4-Nitrobenzoic acid,62-23-7,OC(=O)c1ccc(cc1)[N+]([O-])=O,O=C(O)c1ccc([N+](=O)[O-])cc1,-0.426,-2.11,2.039,-9.527999999999999,2.901
"EDTA, calcium derivative, disodium salt",62-33-9,[Na+].[Na+].[Ca++].[O-]C(=O)CN(CCN(CC([O-])=O)CC([O-])=O)CC([O-])=O,O=C([O-])CN(CCN(CC(=O)[O-])CC(=O)[O-])CC(=O)[O-].[Ca+2].[Na+].[Na+],-0.7040000000000001,-1.554,-0.7020000000000001,-10.235,5.978
"Mercury, (acetato-.kappa.O)phenyl-",62-38-4,CC(=O)O[Hg]c1ccccc1,CC(=O)O[Hg]c1ccccc1,1.121,-2.316,2.149,-5.117,3.116
Aniline,62-53-3,Nc1ccccc1,Nc1ccccc1,0.324,-1.62,0.755,-6.044,4.058
"Acetic acid, calcium salt",62-54-4,[Ca++].CC([O-])=O.CC([O-])=O,CC(=O)[O-].CC(=O)[O-].[Ca+2],-1.957,-0.10800000000000001,0.423,-4.85,9.619
Thiourea,62-56-6,NC(N)=S,NC(N)=S,-0.62,0.9109999999999999,-1.182,-12.575,-0.703
"Ethandioic acid, disodium salt",62-76-0,[Na+].[Na+].[O-]C(=O)C([O-])=O,O=C([O-])C(=O)[O-].[Na+].[Na+],-1.45,-0.593,-0.198,-7.327000000000001,-1.102
Carbaryl,63-25-2,CNC(=O)Oc1cccc2ccccc12,CNC(=O)Oc1cccc2ccccc12,3.077,-3.4419999999999997,2.242,-7.523,2.228
Tetrasodium E.D.T.A.,64-02-8,[Na+].[Na+].[Na+].[Na+].[O-]C(=O)CN(CCN(CC([O-])=O)CC([O-])=O)CC([O-])=O,O=C([O-])CN(CCN(CC(=O)[O-])CC(=O)[O-])CC(=O)[O-].[Na+].[Na+].[Na+].[Na+],-0.769,-1.579,-0.82,-9.999,4.011
Ethanol,64-17-5,CCO,CCO,-0.6759999999999999,0.175,-0.207,-5.553999999999999,14.936
Formic acid,64-18-6,OC=O,O=CO,-5.827000000000001,0.9990000000000001,-0.687,-7.649,4.672
Acetic acid,64-19-7,CC(O)=O,CC(=O)O,-6.1320000000000014,0.746,-1.211,-8.025,4.822
Diethyl sulfate,64-67-5,CCO[S](=O)(=O)OCC,CCOS(=O)(=O)OCC,3.631,-0.33899999999999997,1.148,-5.671,5.558
"Benzamide, 2-hydroxy-",65-45-2,NC(=O)c1ccccc1O,NC(=O)c1ccccc1O,0.901,-1.643,0.908,-12.152000000000001,8.846
Benzoic acid,65-85-0,OC(=O)c1ccccc1,O=C(O)c1ccccc1,-0.466,-1.834,1.814,-8.002,3.231
Glucosamine hydrochloride,66-84-2,Cl.N[C@H]1C(O)O[C@H](CO)[C@@H](O)[C@@H]1O,Cl.N[C@H]1C(O)O[C@H](CO)[C@@H](O)[C@@H]1O,-1.514,0.317,-2.8760000000000003,-19.354,9.926
"Choline, chloride",67-48-1,[Cl-].C[N+](C)(C)CCO,C[N+](C)(C)CCO.[Cl-],-3.293,-1.053,-3.565,-5.273,11.094
Methanol,67-56-1,CO,CO,-2.201,0.617,-0.911,-4.606,16.644
2-Propanol,67-63-0,CC(C)O,CC(C)O,-0.595,-0.205,-0.044,-4.978,15.653
Acetone,67-64-1,CC(C)=O,CC(C)=O,-1.746,-0.059000000000000004,-0.37,-5.195,18.601
Chloroform,67-66-3,ClC(Cl)Cl,ClC(Cl)Cl,4.75,-1.7080000000000002,1.845,-1.4340000000000002,10.734
Dimethyl sulfoxide,67-68-5,C[S](C)=O,CS(C)=O,-1.4409999999999998,-0.185,-1.26,-7.803999999999999,0.137
Lindane,58-89-9,ClC1C(Cl)C(Cl)C(Cl)C(Cl)C1Cl,ClC1C(Cl)C(Cl)C(Cl)C(Cl)C1Cl,5.341,-3.9560000000000004,3.5010000000000003,-2.0,4.857
Hydrochlorothiazide,58-93-5,N[S](=O)(=O)c1cc2c(NCN[S]2(=O)=O)cc1Cl,NS(=O)(=O)c1cc2c(cc1Cl)NCNS2(=O)=O,0.478,-1.4180000000000001,-0.23,-15.458,7.897
Chlorothiazide,58-94-6,N[S](=O)(=O)c1cc2c(NC=N[S]2(=O)=O)cc1Cl,NS(=O)(=O)c1cc2c(cc1Cl)NC=NS2(=O)=O,0.295,-1.739,-0.159,-13.908,7.656
"Phenol, 4-chloro-3-methyl-",59-50-7,Cc1cc(O)ccc1Cl,Cc1cc(O)ccc1Cl,3.639,-2.7889999999999997,2.987,-6.399,9.045
yl)methylamino]methanesulphonate,68-89-3,[Na+].CN(C[S]([O-])(=O)=O)C1=C(C)N(C)N(C1=O)c2ccccc2,Cc1c(N(C)CS(=O)(=O)[O-])c(=O)n(-c2ccccc2)n1C.[Na+],-0.411,-2.2680000000000002,0.14300000000000002,-11.46,2.149
D-Mannitol,69-65-8,OC[C@@H](O)[C@@H](O)[C@H](O)[C@H](O)CO,OC[C@@H](O)[C@@H](O)[C@H](O)[C@H](O)CO,-1.923,0.613,-3.375,-22.927,6.016
Salicylic acid,69-72-7,OC(=O)c1ccccc1O,O=C(O)c1ccccc1O,-0.477,-1.8519999999999999,1.78,-11.071,3.213
p-Toluenesulfonamide,70-55-3,Cc1ccc(cc1)[S](N)(=O)=O,Cc1ccc(S(N)(=O)=O)cc1,0.616,-1.62,0.644,-11.572000000000001,9.914
1-Propanol,71-23-8,CCCO,CCCO,-0.358,-0.285,0.336,-5.393,15.53
1-Butanol,71-36-3,CCCCO,CCCCO,0.59,-0.672,0.906,-4.898,14.16
1-Pentanol,71-41-0,CCCCCO,CCCCCO,1.266,-0.925,1.595,-4.39,8.563
Benzene,71-43-2,c1ccccc1,c1ccccc1,2.541,-2.339,2.207,0.26,0.603
Cobalt (2+) acetate,71-48-7,[Co++].CC([O-])=O.CC([O-])=O,CC(=O)[O-].CC(=O)[O-].[Co+2],-1.962,-0.128,0.366,-4.7780000000000005,11.367
"Ethane, 1,1,1-trichloro-",71-55-6,CC(Cl)(Cl)Cl,CC(Cl)(Cl)Cl,5.032,-2.241,2.4,-0.629,18.416
L-threonine,72-19-5,C[C@@H](O)[C@H](N)C(O)=O,C[C@@H](O)[C@H](N)C(=O)O,-1.956,0.07400000000000001,-2.88,-16.686,5.71
"1,4-Benzenediamine, N,N'-diphenyl-",74-31-7,N(c1ccccc1)c2ccc(Nc3ccccc3)cc2,c1ccc(Nc2ccc(Nc3ccccc3)cc2)cc1,3.698,-4.489,5.112,-8.496,0.389
Methane,74-82-8,C,C,2.052,-0.588,1.6369999999999998,2.231,24.222
"Methane, bromo-",74-83-9,CBr,CBr,4.507,-1.135,1.505,-0.945,15.625
Ethane,74-84-0,CC,CC,4.646,-1.1909999999999998,1.931,2.026,5.816
Ethene,74-85-1,C=C,C=C,2.596,-0.935,1.788,1.32,6.75
Ethyne,74-86-2,C#C,C#C,0.045,-0.195,0.868,-1.8719999999999999,21.191
"Methane, chloro-",74-87-3,CCl,CCl,3.92,-0.9209999999999999,1.5419999999999998,-0.37,11.723
Methanamine,74-89-5,CN,CN,-4.9,-0.019,-0.915,-5.025,10.963
Hydrogen cyanide,74-90-8,C#N,C#N,-1.253,0.355,-1.358,-5.35,9.952
Methanethiol,74-93-1,CS,CS,-0.21,-0.414,1.345,-1.699,11.953
"Methane, dibromo-",74-95-3,BrCBr,BrCBr,5.483,-1.795,1.526,-2.053,15.004
"Ethane, bromo-",74-96-4,CCBr,CCBr,5.009,-1.5290000000000001,1.5619999999999998,-0.728,17.714
"Methane, bromochloro-",74-97-5,ClCBr,ClCBr,5.034,-1.405,1.371,-1.808,13.861
Propane,74-98-6,CCC,CCC,5.465,-1.47,2.434,2.214,6.854
"Ethane, chloro-",75-00-3,CCCl,CCCl,4.425,-1.2209999999999999,1.361,-0.263,18.326
"Ethene, chloro-",75-01-4,ClC=C,C=CCl,3.228,-1.117,1.386,0.138,6.927
"Ethene, fluoro-n",75-02-5,FC=C,C=CF,2.351,-0.941,0.7040000000000001,0.452,2.406
Ethanaminen,75-04-7,CCN,CCN,-6.112,-0.5820000000000001,0.055,-5.212000000000001,10.316
Acetonitrile,75-05-8,CC#N,CC#N,-1.905,0.111,-0.332,-4.91,22.462
Acetaldehyde,75-07-0,CC=O,CC=O,-1.331,0.034,-0.075,-3.6830000000000003,8.773
Carbon disulfide,75-15-0,S=C=S,S=C=S,-1.88,-0.513,1.845,-3.986,-16.875
Dimethyl sulfide,75-18-3,CSC,CSC,3.265,-0.764,1.823,-1.351,5.499
Calcium acetylide,75-20-7,[Ca++].[C-]#[C-],[C-]#[C-].[Ca+2],2.448,-1.403,2.24,-2.369,9.166
Ethylene oxide,75-21-8,C1CO1,C1CO1,-0.336,0.47100000000000003,-0.507,-6.037000000000001,14.141
"Propane, 2-methyl-",75-28-5,CC(C)C,CC(C)C,5.271,-1.742,2.653,2.5140000000000002,11.661
"Propane, 2-chloro-",75-29-6,CC(C)Cl,CC(C)Cl,4.843,-1.629,1.974,0.026000000000000002,17.095
2-Propanamine,75-31-0,CC(C)N,CC(C)N,-5.769,-0.975,0.319,-3.891,10.631
2-Propanethiol,75-33-2,CC(C)S,CC(C)S,0.435,-1.278,1.35,-2.05,15.195
"Ethane, 1,1-dichloro-",75-34-3,CC(Cl)Cl,CC(Cl)Cl,4.831,-1.64,1.788,-1.155,19.818
"Ethene, 1,1-dichloro-",75-35-4,ClC(Cl)=C,C=C(Cl)Cl,3.64,-1.4969999999999999,1.84,-0.456,9.671
Acetyl chloride,75-36-5,CC(Cl)=O,CC(=O)Cl,-0.995,-0.142,0.294,-4.398,10.857
"Ethane, 1,1-difluoro-",75-37-6,CC(F)F,CC(F)F,3.749,-1.252,0.785,-0.031,13.001
"Ethene, 1,1-difluoro-",75-38-7,FC(F)=C,C=C(F)F,2.978,-1.031,1.107,0.525,5.45
Phosgene,75-44-5,ClC(Cl)=O,O=C(Cl)Cl,-0.05,-0.28,1.453,-3.1210000000000004,2.983
"Methane, chlorodifluoro-",75-45-6,FC(F)Cl,FC(F)Cl,4.206,-1.229,0.97,-0.225,12.251
"Methane, trifluoro-n",75-46-7,FC(F)F,FC(F)F,4.0760000000000005,-1.028,0.6729999999999999,0.557,10.371
Trimethylaminen,75-50-3,CN(C)C,CN(C)C,-3.915,-0.278,0.048,-4.126,9.866
"Methane, nitro-",75-52-5,C[N+]([O-])=O,C[N+](=O)[O-],-2.151,0.162,-0.3720000000000001,-4.122,4.629
"Silane, dichloromethyl-",75-54-7,[SiH3]C(Cl)Cl,[SiH3]C(Cl)Cl,3.3280000000000003,-1.355,1.51,-1.9880000000000002,17.864
"Oxirane, methyl-",75-56-9,CC1CO1,CC1CO1,0.36,-0.36,-0.084,-4.256,9.699
Tetramethylammonium chloride,75-57-0,[Cl-].C[N+](C)(C)C,C[N+](C)(C)C.[Cl-],-2.738,-1.273,-4.744,-0.9940000000000001,11.135
Trimethyl methylamine hydroxide,75-59-2,[OH-].CCN(C)C,CCN(C)C.[OH-],-3.218,-0.871,0.721,-3.762,11.427
"Methane, bromotrifluoro-",75-63-8,FC(F)(F)Br,FC(F)(F)Br,5.482,-2.0180000000000002,1.845,1.821,10.092
"2-Propanamine, 2-methyl-",75-64-9,CC(C)(C)N,CC(C)(C)N,-3.863,-1.344,0.393,-4.164,11.434
"2-Propanol, 2-methyl-",75-65-0,CC(C)(C)O,CC(C)(C)O,0.28600000000000003,-0.479,0.313,-4.827,21.334
"2-Propanethiol, 2-methyl-",75-66-1,CC(C)(C)S,CC(C)(C)S,1.938,-1.683,1.5730000000000002,-2.36,18.39
"Ethane, 1-chloro-1,1-difluoro-",75-68-3,CC(F)(F)Cl,CC(F)(F)Cl,4.934,-1.649,1.694,0.5710000000000001,15.628
"Methane, trichlorofluoro-",75-69-4,FC(Cl)(Cl)Cl,FC(Cl)(Cl)Cl,4.8580000000000005,-2.2030000000000003,2.419,0.507,12.22
"Methane, dichlorodifluoro-",75-71-8,FC(F)(Cl)Cl,FC(F)(Cl)Cl,4.794,-1.8840000000000001,2.075,1.217,11.334
"Lead, tetramethyl-",75-74-1,C[Pb](C)(C)C,C[Pb](C)(C)C,3.972,-1.4780000000000002,1.969,-0.5710000000000001,10.354
Methanesulphonic acid,75-75-2,C[S](O)(=O)=O,CS(=O)(=O)O,-0.7070000000000001,1.298,-6.018,-10.343,4.03
Ethanethiol,75-08-1,CCS,CCS,0.55,-0.852,1.187,-2.42,12.752
"Methane, dichloro-",75-09-2,ClCCl,ClCCl,4.495,-1.053,1.159,-1.482,12.815
Difluoromethane,75-10-5,FCF,FCF,2.7,-0.8140000000000001,0.158,-0.45799999999999996,8.852
Formamide,75-12-7,NC=O,NC=O,-2.142,0.845,-1.63,-9.158,4.737
"2-Butanol, 2-methyl-",75-85-4,CCC(C)(C)O,CCC(C)(C)O,0.033,-0.924,0.721,-4.351,17.204
"Propanenitrile, 2-hydroxy-2-methyl-",75-86-5,CC(C)(O)C#N,CC(C)(O)C#N,-0.434,-0.21100000000000002,-0.297,-9.193,17.094
Chloral,75-87-6,ClC(Cl)(Cl)C=O,O=CC(Cl)(Cl)Cl,2.107,-1.58,1.467,-3.929,8.049
"Ethane, 2-chloro-, 1,1,1-trifluoro-",75-88-7,FC(F)(F)CCl,FC(F)(F)CCl,4.658,-1.499,1.632,0.45299999999999996,11.008
"Ethanol, 2,2,2-trifluoro-",75-89-8,OCC(F)(F)F,OCC(F)(F)F,1.806,-0.444,0.498,-4.111000000000001,12.424
"Hydroperoxide, tert-butyl-",75-91-2,CC(C)(C)OO,CC(C)(C)OO,1.367,-0.542,0.935,-7.3229999999999995,12.413
"Silane, trichloroethenyl-",75-94-5,[SiH3]C(Cl)=C(Cl)Cl,[SiH3]C(Cl)=C(Cl)Cl,3.505,-2.349,2.767,-0.929,6.302
"2-Butanone, 3,3-dimethyl-",75-97-8,CC(=O)C(C)(C)C,CC(=O)C(C)(C)C,1.039,-1.358,1.149,-3.465,12.935
"Propanoic acid, 2,2-dimethyl-",75-98-9,CC(C)(C)C(O)=O,CC(C)(C)C(=O)O,-0.995,-1.075,1.243,-7.3629999999999995,5.218
Trichloroacetic acid,76-03-9,OC(=O)C(Cl)(Cl)Cl,O=C(O)C(Cl)(Cl)Cl,-1.661,-1.365,1.211,-7.051,-0.43
Trifluoroacetic acid,76-05-1,OC(=O)C(F)(F)F,O=C(O)C(F)(F)F,-1.372,-0.7709999999999999,-0.33,-4.224,0.154
"Methane, trichloronitro-",76-06-2,[O-][N+](=O)C(Cl)(Cl)Cl,O=[N+]([O-])C(Cl)(Cl)Cl,-0.271,-1.837,1.992,-2.045,6.218
"Ethane, 1,1,2-trichloro-1,2,2-trifluoro-",76-13-1,FC(F)(Cl)C(F)(Cl)Cl,FC(F)(Cl)C(F)(Cl)Cl,4.564,-3.052,3.039,1.54,7.454
"Ethane, 1,2-dichlorotetrafluoro-",76-14-2,FC(F)(Cl)C(F)(F)Cl,FC(F)(Cl)C(F)(F)Cl,4.452,-2.736,2.655,2.18,7.871
"Ethane, chloropentafluoro-",76-15-3,FC(F)(F)C(F)(F)Cl,FC(F)(F)C(F)(F)Cl,4.301,-2.465,2.287,2.7739999999999996,8.159
"Ethane, hexafluoro-",76-16-4,FC(F)(F)C(F)(F)F,FC(F)(F)C(F)(F)F,4.1,-2.206,1.898,3.4210000000000003,8.184
"1-Propanol, 2-methyl-2-nitro-",76-39-1,CC(C)(CO)[N+]([O-])=O,CC(C)(CO)[N+](=O)[O-],-0.6779999999999999,-0.846,0.036000000000000004,-8.06,8.833
"Cyclopentadiene, hexachloro-",77-47-4,ClC1=C(Cl)C(Cl)(Cl)C(=C1Cl)Cl,ClC1=C(Cl)C(Cl)(Cl)C(Cl)=C1Cl,4.71,-5.813,4.871,-0.63,4.648
"Stannane, dibutylbis[(1-oxododecyl)oxy]-",77-58-7,CCCCCCCCCCCC(=O)O[Sn](CCCC)(CCCC)OC(=O)CCCCCCCCCCC,CCCCCCCCCCCC(=O)O[Sn](CCCC)(CCCC)OC(=O)CCCCCCCCCCC,5.769,-5.737,9.034,-2.51,6.998
"2,4-Imidazolidinedione, 5,5-dimethyl-",77-71-4,CC1(C)NC(=O)NC1=O,CC1(C)NC(=O)NC1=O,-0.19,-0.318,-0.485,-14.314,8.811
Dicyclopentadiene,77-73-6,C1C=CC2C3CC(C=C3)C12,C1=CC2C3C=CC(C3)C2C1,4.399,-4.194,2.487,-1.03,3.995
"Propane, 2,2-dimethoxy-",77-76-9,COC(C)(C)OC,COC(C)(C)OC,0.638,-0.795,0.679,-2.801,14.113
Dimethyl sulfate,77-78-1,CO[S](=O)(=O)OC,COS(=O)(=O)OC,1.731,0.321,-1.083,-5.511,0.376
"Thiophene, 2,5-dihydro-, 1,1-dioxide",77-79-2,O=[S]1(=O)CC=CC1,O=S1(=O)CC=CC1,1.86,-0.09699999999999999,-0.498,-9.416,4.227
"1,3-Propanediol, 2-(hydroxymethyl)-2-methyl-",77-85-0,CC(CO)(CO)CO,CC(CO)(CO)CO,-0.315,0.006,-1.091,-13.463,9.533
"1,3-Propanediol, 2-amino-2-(hydroxymethyl)-",77-86-1,NC(CO)(CO)CO,NC(CO)(CO)CO,-2.071,0.39299999999999996,-1.77,-16.983,7.854
"Citric acid, tributyl ester, acetate",77-90-7,CCCCOC(=O)CC(O)(CC(=O)OCCCC)C(=O)OCCCC.CC(O)=O,CC(=O)O.CCCCOC(=O)CC(O)(CC(=O)OCCCC)C(=O)OCCCC,0.747,-2.641,2.047,-6.91,5.645
Citric acid,77-92-9,OC(=O)CC(O)(CC(O)=O)C(O)=O,O=C(O)CC(O)(CC(=O)O)C(=O)O,-5.647,-0.12300000000000001,-1.7280000000000002,-14.697000000000001,3.396
"Ethanaminium, N,N,N-triethyl-, hydroxide",77-98-5,[OH-].CC[N+](CC)(CC)CC,CC[N+](CC)(CC)CC.[OH-],-3.989,-2.536,-2.718,-0.932,11.349
"1,3-Propanediol, 2-ethyl-2-(hydroxymethyl)-",77-99-6,CCC(CO)(CO)CO,CCC(CO)(CO)CO,-0.07,-0.461,-1.404,-12.530999999999999,9.518
"Lead, tetraethyl-",78-00-2,CC[Pb](CC)(CC)CC,CC[Pb](CC)(CC)CC,1.577,-3.658,3.107,0.381,8.609
"Silicic acid, (H4SiO4), tetraethyl ester",78-10-4,CCO[Si](OCC)(OCC)OCC,CCO[Si](OCC)(OCC)OCC,3.16,-2.1180000000000003,0.536,-5.754,15.444
"Silane, tetramethyl-",75-76-3,C[Si](C)(C)C,C[Si](C)(C)C,-0.58,-1.6640000000000001,3.12,0.865,12.455
"Silane, chlorotrimethyl-",75-77-4,C[Si](C)(C)Cl,C[Si](C)(C)Cl,2.248,-1.8630000000000002,2.396,-0.6,13.437
"Silane, dichlorodimethyl-",75-78-5,C[Si](C)(Cl)Cl,C[Si](C)(Cl)Cl,3.35,-2.08,2.191,-1.516,19.477
"Silane, trichloromethyl-",75-79-6,[SiH3]C(Cl)(Cl)Cl,[SiH3]C(Cl)(Cl)Cl,3.875,-2.09,2.276,-1.121,17.886
"2-Cyclohexen-1-one, 3,5,5-trimethyl-",78-59-1,CC1=CC(=O)CC(C)(C)C1,CC1=CC(=O)CC(C)(C)C1,3.218,-1.9780000000000002,2.056,-4.678999999999999,7.092
"Hexane, 2,5-dimethyl-2,5-bis(t-butylperoxy)-",78-63-7,CC(C)(C)OOC(C)(C)CCC(C)(C)OOC(C)(C)C,CC(C)(C)OOC(C)(C)CCC(C)(C)OOC(C)(C)C,5.761,-2.8089999999999997,7.0470000000000015,-5.2,15.384
"Propanenitrile, 2,2'-azobis[2-methyl-",78-67-1,CC(C)(N=NC(C)(C)C#N)C#N,CC(C)(C#N)N=NC(C)(C)C#N,0.043,-1.723,2.076,-7.803,9.573
"3-Octanol, 3,7-dimethyl-",78-69-3,CCC(C)(O)CCCC(C)C,CCC(C)(O)CCCC(C)C,2.889,-2.55,3.221,-2.675,9.621
"1,6-Octadien-3-ol, 3,7-dimethyl-",78-70-6,CC(C)=CCCC(C)(O)C=C,C=CC(C)(O)CCC=C(C)C,2.38,-2.549,2.927,-4.925,9.471
"Butane, 2-methyl-",78-78-4,CCC(C)C,CCC(C)C,2.954,-2.151,2.9810000000000003,2.739,9.205
Isoprene,78-79-5,CC(=C)C=C,C=CC(=C)C,0.179,-1.6569999999999998,2.286,-0.305,8.674
"Propanenitrile, 2-methyl-",78-82-0,CC(C)C#N,CC(C)C#N,-0.075,-0.998,0.5770000000000001,-3.734,24.773
"1-Propanol, 2-methyl-",78-83-1,CC(C)CO,CC(C)CO,0.51,-0.679,0.6629999999999999,-4.613,14.482
"Propanal, 2-methyl-",78-84-2,CC(C)C=O,CC(C)C=O,0.77,-0.87,0.502,-3.042,16.508
"Propane, 1,2-dichloro-",78-87-5,CC(Cl)CCl,CC(Cl)CCl,4.795,-1.795,2.064,-1.135,15.175
Propylenediamine,78-90-0,CC(N)CN,CC(N)CN,-5.312,-0.836,-0.759,-9.48,9.81
Butan-2-ol,78-92-2,CCC(C)O,CCC(C)O,-0.513,-0.652,0.488,-4.436,11.511
2-Butanone,78-93-3,CCC(C)=O,CCC(C)=O,-0.5529999999999999,-0.4320000000000001,0.366,-4.008,13.733
"2-Propanone, 1-chloro-",78-95-5,CC(=O)CCl,CC(=O)CCl,-0.059,-0.19399999999999998,0.271,-5.814,13.741
"2-Propanol, 1-amino-",78-96-6,CC(O)CN,CC(O)CN,-3.359,-0.165,-0.892,-10.238,9.286
"Propanenitrile, 2-hydroxy-",78-97-7,CC(O)C#N,CC(O)C#N,-1.398,0.17,-0.861,-9.652999999999999,17.613
"Ethane, 1,1,2-trichloro-",79-00-5,ClCC(Cl)Cl,ClCC(Cl)Cl,4.791,-1.8730000000000002,1.922,-2.0709999999999997,12.573
"Ethene, trichloro-",79-01-6,ClC=C(Cl)Cl,ClC=C(Cl)Cl,4.223,-2.153,2.458,-0.78,5.04