chemical_name,cas,smiles,canonical_smiles,log_p,log_s,kow,water-energy,pka
Vinyl propionate,105-38-4,CCC(=O)OC=C,C=COC(=O)CC,0.957,-0.938,1.146,-3.472,6.929
Ethyl chloroacetate,105-39-5,CCOC(=O)CCl,CCOC(=O)CCl,1.455,-0.83,0.8759999999999999,-4.187,7.855
Methyl acetoacetate,105-45-3,COC(=O)CC(C)=O,COC(=O)CC(C)=O,-0.713,-0.386,-0.435,-6.941,8.869
Isopropyl chloroacetate,105-48-6,CC(C)OC(=O)CCl,CC(C)OC(=O)CCl,2.995,-1.297,1.247,-3.7230000000000003,9.626
"Bis(1,3-Dimethylbutyl) maleate",105-52-2,CC(C)CC(C)OC(=O)\C=C/C(=O)OC(C)CC(C)C,CC(C)CC(C)OC(=O)/C=C\C(=O)OC(C)CC(C)C,4.3660000000000005,-3.9219999999999997,4.989,-4.081,8.368
Diethyl malonate,105-53-3,CCOC(=O)CC(=O)OCC,CCOC(=O)CC(=O)OCC,1.164,-1.365,0.8420000000000001,-5.1979999999999995,10.503
Ethyl cyanoacetate,105-56-6,CCOC(=O)CC#N,CCOC(=O)CC#N,-0.34600000000000003,-0.759,0.063,-6.284,7.342
"Ethanol, 2,2'-(methylimino)di-",105-59-9,CN(CCO)CCO,CN(CCO)CCO,-2.219,0.055999999999999994,-1.139,-10.495999999999999,8.786
"2H-Azepin-2-one, hexahydro-",105-60-2,O=C1CCCCCN1,O=C1CCCCCN1,0.012,-0.857,0.047,-7.809,13.048
"1-Methyl-1,2-ethanediyl dioleate",105-62-4,CCCCCCCC\C=C/CCCCCCCC(=O)OCC(C)OC(=O)CCCCCCC\C=C/CCCCCCCC,CCCCCCCC/C=C\CCCCCCCC(=O)OCC(C)OC(=O)CCCCCCC/C=C\CCCCCCCC,5.35,-5.352,9.076,-2.478,6.849
Diisopropyl peroxydicarbonate,105-64-6,CC(C)OC(=O)OOC(=O)OC(C)C,CC(C)OC(=O)OOC(=O)OC(C)C,2.111,-2.6010000000000004,1.925,-4.05,6.946
"2,4-Xylenol",105-67-9,Cc1ccc(O)c(C)c1,Cc1ccc(O)c(C)c1,3.267,-2.549,2.501,-5.704,10.695
Dibutyl maleate,105-76-0,CCCCOC(=O)\C=C/C(=O)OCCCC,CCCCOC(=O)/C=C\C(=O)OCCCC,4.082,-3.222,3.676,-5.792000000000001,7.238
didecyl adipate,105-97-5,CCCCCCCCCCOC(=O)CCCCC(=O)OCCCCCCCCCC,CCCCCCCCCCOC(=O)CCCCC(=O)OCCCCCCCCCC,5.565,-5.101,7.455,-2.571,6.885
Dibutyl adipate,105-99-7,CCCCOC(=O)CCCCC(=O)OCCCC,CCCCOC(=O)CCCCC(=O)OCCCC,5.051,-3.5639999999999996,3.275,-3.8689999999999998,7.769
"Octadecanoic acid, 12-hydroxy-",106-14-9,CCCCCCC(O)CCCCCCCCCCC(O)=O,CCCCCCC(O)CCCCCCCCCCC(=O)O,2.523,-3.935,5.322,-4.638,5.319
Bis(2-ethylhexyl)amine,106-20-7,CCCCC(CC)CNCC(CC)CCCC,CCCCC(CC)CNCC(CC)CCCC,3.245,-4.178999999999999,5.895,-1.469,10.765
"6-Octen-1-ol, 3,7-dimethyl-",106-22-9,CC(CCO)CCC=C(C)C,CC(C)=CCCC(C)CCO,3.074,-2.735,3.622,-2.655,10.711
Citronellal,106-23-0,CC(CCC=C(C)C)CC=O,CC(C)=CCCC(C)CC=O,4.107,-3.015,3.965,-1.771,9.671
Geraniol,106-24-1,CC(C)=CCC\C(C)=C\CO,CC(C)=CCC/C(C)=C/CO,2.7260000000000004,-2.733,3.381,-4.4719999999999995,9.653
Nerol,106-25-2,CC(C)=CCC\C(C)=C/CO,CC(C)=CCC/C(C)=C\CO,3.345,-2.674,3.4330000000000003,-4.7780000000000005,9.912
Butyric anhydride,106-31-0,CCCC(=O)OC(=O)CCC,CCCC(=O)OC(=O)CCC,4.184,-2.092,2.445,-4.513,6.262
"Propanoic acid, propyl ester",106-36-5,CCCOC(=O)CC,CCCOC(=O)CC,3.115,-1.3840000000000001,1.622,-2.7289999999999996,9.231
"1,4-Xylene",106-42-3,Cc1ccc(C)cc1,Cc1ccc(C)cc1,3.965,-3.0189999999999997,3.323,-1.107,2.942
"Toluene, 4-chloro-",106-43-4,Cc1ccc(Cl)cc1,Cc1ccc(Cl)cc1,4.214,-3.2880000000000003,3.339,-1.187,2.804
"Phenol, 4-methyl-",106-44-5,Cc1ccc(O)cc1,Cc1ccc(O)cc1,2.629,-2.245,1.899,-6.435,10.272
"Benzene, 1,4-dichloro-",106-46-7,Clc1ccc(Cl)cc1,Clc1ccc(Cl)cc1,4.475,-3.585,3.364,-1.137,6.194
"Phenol, 4-chloro-",106-48-9,Oc1ccc(Cl)cc1,Oc1ccc(Cl)cc1,3.23,-2.509,2.543,-6.52,8.921
"Aniline, 4-methyl-",106-49-0,Cc1ccc(N)cc1,Cc1ccc(N)cc1,1.129,-1.989,1.372,-6.228,4.308
p-Phenylenediamine,106-50-3,Nc1ccc(N)cc1,Nc1ccc(N)cc1,-0.327,-1.141,-0.13,-11.097999999999999,6.512
Isobutyl acryliate,106-63-8,CC(C)COC(=O)C=C,C=CC(=O)OCC(C)C,3.4730000000000003,-2.1719999999999997,2.219,-3.537,10.041
Dimethyl succinate,106-65-0,COC(=O)CCC(=O)OC,COC(=O)CCC(=O)OC,-0.027000000000000003,-0.904,0.18600000000000005,-5.596,5.762
Oxydiethylene chloroformate,106-75-2,OC(Cl)=O.C=COC=C,C=COC=C.O=C(O)Cl,-1.811,-0.156,0.7440000000000001,-3.9760000000000004,3.799
Dimethyl decanedioate,106-79-6,COC(=O)CCCCCCCCC(=O)OC,COC(=O)CCCCCCCCC(=O)OC,4.099,-2.96,2.799,-3.885,6.285
"Butane, 1,2-epoxy-",106-88-7,CCC1CO1,CCC1CO1,1.238,-1.033,0.908,-3.556,5.545
"Oxirane, chloromethyl-",106-89-8,ClCC1CO1,ClCC1CO1,1.705,-0.727,0.406,-5.529,11.542
Glycidyl methacrylate,106-91-2,CC(=C)C(=O)OCC1CO1,C=C(C)C(=O)OCC1CO1,1.707,-2.004,1.178,-7.296,8.215
"Propane, 1-(allyloxy)-2,3-epoxy-",106-92-3,C=CCOCC1CO1,C=CCOCC1CO1,1.34,-1.052,0.096,-6.612,8.204
"Ethane, 1,2-dibromo-",106-93-4,BrCCBr,BrCCBr,5.4179999999999975,-2.0,1.967,-2.535,14.533
"Propane, 1-bromo-",106-94-5,CCCBr,CCCBr,4.838,-1.8419999999999999,2.272,-0.314,15.782
Butane,106-97-8,CCCC,CCCC,3.624,-1.7619999999999998,2.964,2.528,5.242
1-Butene,106-98-9,CCC=C,C=CCC,3.318,-1.517,2.456,1.963,4.292
"1,3-Butadiene",106-99-0,C=CC=C,C=CC=C,0.458,-1.13,2.048,0.8079999999999999,4.893
2-Butene,107-01-7,CC=CC,CC=CC,1.416,-1.5090000000000001,2.194,1.7069999999999999,4.588
Acrolein,107-02-8,C=CC=O,C=CC=O,-0.944,-0.255,0.01,-4.052,8.4
1-Propanethiol,107-03-9,CCCS,CCCS,0.647,-1.248,1.749,-2.175,10.839
"1-Propene, 3-chloro-",107-05-1,ClCC=C,C=CCCl,3.686,-1.294,1.335,-0.099,9.341
"Ethane, 1,2-dichloro-",107-06-2,ClCCCl,ClCCCl,4.953,-1.237,1.454,-1.9809999999999999,13.484
2-Chloroethanol,107-07-3,OCCCl,OCCCl,0.443,-0.046,0.071,-7.376,14.656
Propanenitrile,107-12-0,CCC#N,CCC#N,-0.804,-0.502,-0.003,-4.197,31.289
Acrylonitrile,107-13-1,C=CC#N,C=CC#N,-0.816,-0.349,-0.112,-4.226,4.949
Ethylenediamine,107-15-3,NCCN,NCCN,-6.348,-0.413,-1.652,-10.144,10.042
2-Propen-1-ol,107-18-6,OCC=C,C=CCO,-0.14800000000000002,-0.204,0.36,-6.279,9.585
2-Propyn-1-ol,107-19-7,OCC#C,C#CCO,-0.831,0.249,-0.162,-7.249,13.12
Ethylene glycol,107-21-1,OCCO,OCCO,-2.579,0.9490000000000001,-1.233,-10.647,13.253
Glyoxal,107-22-2,O=CC=O,O=CC=O,-2.878,0.45899999999999996,-0.921,-8.635,8.343
"Ether, methyl vinyl",107-25-5,COC=C,C=COC,-0.461,-0.573,0.8,-0.345,6.958
"Acetaldehyde, oxime",107-29-9,CC=NO,CC=NO,-1.845,0.239,0.234,-7.325,11.19
"Ether, chloromethyl methyl",107-30-2,COCCl,COCCl,1.639,-0.226,0.5720000000000001,-3.011,14.304
Methyl formate,107-31-3,COC=O,COC=O,-1.364,0.183,-0.166,-3.464,5.045
"Ethanesulfonic acid, 2-amino-",107-35-7,NCC[S](O)(=O)=O,NCCS(=O)(=O)O,-0.698,0.655,-5.87,-12.651,5.829
"2,4-Pentanediol, 2-methyl-",107-41-5,CC(O)CC(C)(C)O,CC(O)CC(C)(C)O,-0.498,-0.66,-0.07200000000000001,-7.9,17.496
Betaine,107-43-7,C[N+](C)(C)CC([O-])=O,C[N+](C)(C)CC(=O)[O-],-2.012,-1.167,-4.419,-5.023,8.729
"Butylamine, 1,1,3,3-tetramethyl-",107-45-9,CC(C)(C)CC(C)(C)N,CC(C)(C)CC(C)(C)N,-1.051,-2.452,2.38,-2.129,10.766
"Disiloxane, hexamethyl-",107-46-0,C[Si](C)(C)O[Si](C)(C)C,C[Si](C)(C)O[Si](C)(C)C,-0.883,-1.962,4.819,-3.4360000000000004,11.738
"Trisiloxane, octamethyl-",107-51-7,C[Si](C)(C)O[Si](C)(C)O[Si](C)(C)C,C[Si](C)(C)O[Si](C)(C)O[Si](C)(C)C,-0.141,-2.246,6.479,-4.328,14.613
"2-Propenamide, N-(1,1-dimethylethyl)-",107-58-4,CC(C)(C)NC(=O)C=C,C=CC(=O)NC(C)(C)C,1.171,-1.9269999999999998,1.425,-7.745,7.028
"1-Octadecanaminium, N,N-dimethyl-N-octadecyl-, chloride",107-64-2,[Cl-].CCCCCCCCCCCCCCCCCC[N+](C)(C)CCCCCCCCCCCCCCCCCC,CCCCCCCCCCCCCCCCCC[N+](C)(C)CCCCCCCCCCCCCCCCCC.[Cl-],3.677,-6.019,7.371,-0.429,8.686
Dibutyl phosphate,107-66-4,CCCCO[P]([O-])(=O)OCCCC,CCCCOP(=O)([O-])OCCCC,4.803,-2.146,3.22,-6.044,10.45
"Ethaneperoxoic acid, 1,1-dimethylethyl ethaneperoxoate",107-71-1,CC(=O)OOC(C)(C)C,CC(=O)OOC(C)(C)C,2.765,-1.227,1.785,-5.149,8.993
"Pentane, 2-methyl-",107-83-5,CCCC(C)C,CCCC(C)C,4.484,-2.438,3.978,2.701,7.912
"2-Butenal, 3-methyl-",107-86-8,CC(C)=CC=O,CC(C)=CC=O,0.153,-1.301,1.484,-4.121,6.901
2-Pentanone,107-87-9,CCCC(C)=O,CCCC(C)=O,1.459,-0.8079999999999999,0.7509999999999999,-3.815,13.001
"1,3-Butanediol",107-88-0,CC(O)CCO,CC(O)CCO,-1.308,-0.057999999999999996,-0.6509999999999999,-9.155,9.376
Butanoic acid,107-92-6,CCCC(O)=O,CCCC(=O)O,-1.509,-0.37,0.476,-6.906000000000001,5.093
"Propionic acid, 3-mercapto-",107-96-0,OC(=O)CCS,O=C(O)CCS,-2.216,-0.059000000000000004,0.35700000000000004,-9.942,5.679
"2-Propanol, 1-methoxy-",107-98-2,COCC(C)O,COCC(C)O,-1.128,0.032,-0.258,-7.462000000000001,15.555
"Ethanol, 2-(dimethylamino)-",108-01-0,CN(C)CCO,CN(C)CCO,-3.2880000000000003,-0.106,-0.893,-8.837,9.366
"Propane, 1-nitro-",108-03-2,CCC[N+]([O-])=O,CCC[N+](=O)[O-],0.401,-0.8759999999999999,0.799,-3.5980000000000003,8.587
Vinyl acetate,108-05-4,CC(=O)OC=C,C=COC(C)=O,-0.545,-0.365,0.459,-3.748,7.785
Methyl isobutyl ketone,108-10-1,CC(C)CC(C)=O,CC(=O)CC(C)C,2.567,-1.3159999999999998,1.245,-2.873,12.378
"2-Pentanol, 4-methyl-",108-11-2,CC(C)CC(C)O,CC(C)CC(C)O,1.064,-1.4369999999999998,1.641,-3.1639999999999997,12.897
"2-Propanamine, N-(1-methylethyl)-",108-18-9,CC(C)NC(C)C,CC(C)NC(C)C,-3.215,-1.8780000000000001,1.346,-3.315,10.839
Imidodicarbonic diamide,108-19-0,NC(=O)NC(N)=O,NC(=O)NC(N)=O,-0.077,0.878,-1.157,-16.826,11.769
"Propane, 2,2'-oxybis-",108-20-3,CC(C)OC(C)C,CC(C)OC(C)C,3.076,-1.618,1.539,-1.5759999999999998,15.71
1-methylethyl acetate,108-21-4,CC(C)OC(C)=O,CC(=O)OC(C)C,1.787,-1.022,0.906,-2.77,14.631
Isopropenyl acetate,108-22-5,CC(=C)OC(C)=O,C=C(C)OC(C)=O,0.159,-0.87,0.623,-3.707,10.782
1-Methylethyl carbonochloridiate,108-23-6,CC(C)OC(Cl)=O,CC(C)OC(=O)Cl,3.1710000000000003,-1.347,1.996,-2.314,5.203
Acetic anhydride,108-24-7,CC(=O)OC(C)=O,CC(=O)OC(C)=O,-1.705,-0.078,-0.371,-5.53,5.703
Maleic anhydride,108-31-6,O=C1OC(=O)C=C1,O=C1C=CC(=O)O1,-0.294,-0.35100000000000003,-0.804,-7.4910000000000005,5.065
Propylene carbonate,108-32-7,CC1COC(=O)O1,CC1COC(=O)O1,0.303,-0.691,-0.244,-4.145,3.919
"1,3-Xylene",108-38-3,Cc1cccc(C)c1,Cc1cccc(C)c1,3.928,-3.0380000000000003,3.256,-0.99,3.965
"1,3-Cresol",108-39-4,Cc1cccc(O)c1,Cc1cccc(O)c1,2.6630000000000003,-2.265,2.018,-6.327000000000001,10.495
m-Toluidine,108-44-1,Cc1cccc(N)c1,Cc1cccc(N)c1,0.943,-2.024,1.403,-6.069,4.323
"1,3-Phenylenediamine",108-45-2,Nc1cccc(N)c1,Nc1cccc(N)c1,-0.422,-1.246,-0.219,-11.008,5.847
"1,3-Benzenediol",108-46-3,Oc1cccc(O)c1,Oc1cccc(O)c1,1.878,-1.63,0.82,-11.099,7.303
Dimethyl malonate,108-59-8,COC(=O)CC(=O)OC,COC(=O)CC(=O)OC,-0.507,-0.58,-0.329,-5.939,7.949
"2,4,6,8-Tetramethyl-1,3,5,7-tetraoxacyclooctane",108-62-3,CC1OC(C)OC(C)OC(C)O1,CC1OC(C)OC(C)OC(C)O1,0.014,-0.377,0.684,-4.449,11.6
"Hexanedioic acid, bis(1-methylheptyl) ester",108-63-4,CCCCCCC(C)OC(=O)CCCCC(=O)OC(C)CCCCCC,CCCCCCC(C)OC(=O)CCCCC(=O)OC(C)CCCCCC,5.334,-4.603,6.559,-2.511,6.397
"2-Propyl, 1-methoxy-, acetate",108-65-6,COCC(C)OC(C)=O,COCC(C)OC(C)=O,0.481,-0.7759999999999999,0.495,-4.538,14.616
"Benzene, 1,3,5-trimethyl-",108-67-8,Cc1cc(C)cc(C)c1,Cc1cc(C)cc(C)c1,4.419,-3.535,3.706,-1.275,6.367
"3,5-Xylenol",108-68-9,Cc1cc(C)cc(O)c1,Cc1cc(C)cc(O)c1,3.419,-2.688,2.271,-6.032,11.205
Cyanuric chloride,108-77-0,Clc1nc(Cl)nc(Cl)n1,Clc1nc(Cl)nc(Cl)n1,0.475,-1.933,1.803,-6.154,1.642
Melamine,108-78-1,Nc1nc(N)nc(N)n1,Nc1nc(N)nc(N)n1,-0.8270000000000001,-0.355,-1.195,-15.196,5.285
Isocyanuric acid,108-80-5,O=C1NC(=O)NC(=O)N1,O=c1[nH]c(=O)[nH]c(=O)[nH]1,-1.128,0.023,-1.477,-20.437,5.834
"4-Heptanol, 2,6-dimethyl-",108-82-7,CC(C)CC(O)CC(C)C,CC(C)CC(O)CC(C)C,2.841,-2.45,3.2260000000000004,-2.5860000000000003,11.382
Diisobutyl ketone,108-83-8,CC(C)CC(=O)CC(C)C,CC(C)CC(=O)CC(C)C,5.229,-2.354,3.03,-2.0669999999999997,11.469
Toluene,108-88-3,Cc1ccccc1,Cc1ccccc1,3.365,-2.616,2.773,-0.49,2.597
"Pyridine, 4-methyl-",108-89-4,Cc1ccncc1,Cc1ccncc1,1.2990000000000002,-1.815,1.3219999999999998,-4.248,6.222
"Benzene, chloro-",108-90-7,Clc1ccccc1,Clc1ccccc1,3.727,-2.8560000000000003,2.74,-0.508,2.883
Cyclohexylamine,108-91-8,NC1CCCCC1,NC1CCCCC1,-1.733,-2.033,1.4780000000000002,-3.947,9.853
Cyclohexanol,108-93-0,OC1CCCCC1,OC1CCCCC1,1.274,-1.4040000000000001,1.2990000000000002,-5.318,7.377
Cyclohexanone,108-94-1,O=C1CCCCC1,O=C1CCCCC1,2.46,-1.068,0.953,-4.885,11.363
Phenol,108-95-2,Oc1ccccc1,Oc1ccccc1,1.616,-1.885,1.483,-6.407,10.055
Benzenethiol,108-98-5,Sc1ccccc1,Sc1ccccc1,2.825,-2.6489999999999996,2.416,-3.4760000000000004,6.952
3-Picoline,108-99-6,Cc1cccnc1,Cc1cccnc1,1.096,-1.61,1.124,-4.3180000000000005,6.034
2-Picoline,109-06-8,Cc1ccccn1,Cc1ccccn1,0.762,-1.618,0.989,-4.111000000000001,5.248
"Pyridine, 2-chloro-",109-09-1,Clc1ccccn1,Clc1ccccn1,1.6740000000000002,-1.892,1.225,-3.918,0.368
"2-Propenoic acid, 2-methyl-,1,2-ethanediylbis(oxy-2,1-ethanediyl)ester",109-16-0,CC(=C)C(=O)OCCOCCOCCOC(=O)C(C)=C,C=C(C)C(=O)OCCOCCOCCOC(=O)C(=C)C,2.5380000000000003,-2.5669999999999997,1.76,-7.006,11.399
Dibutyl decanedioate,109-43-3,CCCCOC(=O)CCCCCCCCC(=O)OCCCC,CCCCOC(=O)CCCCCCCCC(=O)OCCCC,5.537000000000001,-4.296,4.938,-3.3139999999999996,8.308
Pentanoic acid,109-52-4,CCCCC(O)=O,CCCCC(=O)O,-0.468,-0.778,0.994,-6.267,4.603
"Propane, 1-(ethenyloxy)-2-methyl-",109-53-5,CC(C)COC=C,C=COCC(C)C,4.203,-1.869,2.319,-0.228,8.777
"Propane, 1-Amino-3-dimethylamino-",109-55-7,CN(C)CCCN,CN(C)CCCN,-4.859,-0.9740000000000001,-0.865,-7.746,9.999
"Ethanol, 2-(1-methylethoxy)-",109-59-1,CC(C)OCCO,CC(C)OCCO,0.135,-0.40299999999999997,0.131,-6.3660000000000005,14.113
Propyl acetate,109-60-4,CCCOC(C)=O,CCCOC(C)=O,1.665,-0.9059999999999999,1.176,-2.995,11.733
"Carbonochloridic acid, propyl ester",109-61-5,CCCOC(Cl)=O,CCCOC(=O)Cl,2.766,-1.2990000000000002,1.932,-2.559,6.631
"Butane, 1-bromo-",109-65-9,CCCCBr,CCCCBr,5.064,-2.153,2.82,-0.121,12.561
Pentane,109-66-0,CCCCC,CCCCC,4.217,-1.96,3.606,2.4290000000000003,5.134
1-Pentene,109-67-1,CCCC=C,C=CCCC,4.1960000000000015,-1.8230000000000002,3.265,1.8459999999999999,3.713
"Butane, 1-chloro-",109-69-3,CCCCCl,CCCCCl,4.992,-1.82,2.677,0.057999999999999996,12.56
"Propane, 1-bromo-3-chloro-",109-70-6,ClCCCBr,ClCCCBr,5.0539999999999985,-2.1069999999999998,2.0380000000000003,-2.293,15.33
"Lithium, butyl-",109-72-8,[Li]CCCC,[Li]CCCC,4.005,-1.8359999999999999,2.425,-0.631,6.681
1-Butanamine,109-73-9,CCCCN,CCCCN,-2.939,-1.341,0.578,-4.256,10.703
Butanenitrile,109-74-0,CCCC#N,CCCC#N,0.155,-0.975,0.391,-3.565,17.122
"Propiononitrile, 3-hydroxy-",109-78-4,OCCC#N,N#CCCO,-1.817,0.168,-1.114,-9.237,17.826
1-Butanethiol,109-79-5,CCCCS,CCCCS,1.635,-1.541,2.569,-2.01,10.906
"Ethanol, 2-(methylamino)-",109-83-1,CNCCO,CNCCO,-4.397,0.159,-1.095,-9.222000000000001,9.587
"Ethanol, 2-methoxy-",109-86-4,COCCO,COCCO,-1.534,0.368,-0.833,-7.597,16.103
"Methane, dimethoxy-",109-87-5,COCOC,COCOC,-0.555,0.20600000000000002,0.17600000000000002,-3.778,12.299
Diethylamine,109-89-7,CCNCC,CCNCC,-3.27,-0.894,0.348,-3.64,10.961
"Ethene, ethoxy-",109-92-2,CCOC=C,C=COCC,1.055,-0.8590000000000001,1.476,-0.473,7.308
Ethyl formate,109-94-4,CCOC=O,CCOC=O,0.042,-0.188,0.116,-3.012,8.261
Tetrahydrofuran,109-99-9,C1CCOC1,C1CCOC1,0.767,-0.716,0.461,-3.716,10.914
Furan,110-00-9,o1cccc1,c1ccoc1,1.136,-1.446,1.42,-4.327,3.483
"Thiophene, tetrahydro-",110-01-0,C1CCSC1,C1CCSC1,2.204,-1.754,1.569,-2.633,10.145
Thiophene,110-02-1,s1cccc1,c1ccsc1,2.0580000000000003,-2.11,1.824,-1.5230000000000001,2.207
"2,5-Hexanediol, 2,5-dimethyl-",110-03-2,CC(C)(O)CCC(C)(C)O,CC(C)(O)CCC(C)(C)O,0.759,-1.104,0.304,-6.789,16.982
"Peroxide, bis(tert-butyl)-",110-05-4,CC(C)(C)OOC(C)(C)C,CC(C)(C)OOC(C)(C)C,5.601,-1.796,4.707,-4.605,15.85
"2-Hexanone, 5-methyl-",110-12-3,CC(C)CCC(C)=O,CC(=O)CCC(C)C,2.902,-1.568,1.711,-2.537,12.521
Succinic acid,110-15-6,OC(=O)CCC(O)=O,O=C(O)CCC(=O)O,-5.51,0.297,-0.988,-11.187999999999999,5.165
Maleic acid,110-16-7,OC(=O)\C=C/C(O)=O,O=C(O)/C=C\C(=O)O,-4.641,0.187,-0.107,-13.412,4.7
Fumaric acid,110-17-8,OC(=O)/C=C/C(O)=O,O=C(O)/C=C/C(=O)O,-4.829,0.237,-0.121,-13.217,4.578
"Ethylenediamine, N,N,N',N'-tetramethyl-",110-18-9,CN(C)CCN(C)C,CN(C)CCN(C)C,-3.361,-0.894,0.233,-7.066,8.839
2-Methylpropyl acetate,110-19-0,CC(C)COC(C)=O,CC(=O)OCC(C)C,2.991,-1.324,1.482,-2.528,12.278
Biurea,110-21-4,NC(=O)NNC(N)=O,NC(=O)NNC(N)=O,-0.816,1.042,-2.382,-18.315,4.682
"Glycine, (Z)-N-Methyl-N-(1-oxo-9-octadecenyl)-",110-25-8,CCCCCCCC\C=C/CCCCCCCC(=O)N(C)CC(O)=O,CCCCCCCC/C=C\CCCCCCCC(=O)N(C)CC(=O)O,1.824,-3.903,5.089,-5.763999999999999,4.243
"Tetradecanoic acid, 1-methylethyl ester",110-27-0,CCCCCCCCCCCCCC(=O)OC(C)C,CCCCCCCCCCCCCC(=O)OC(C)C,5.5870000000000015,-4.729,7.432,-1.579,8.776
"Octadecanamide, N,N'-1,2-ethanediylbis-",110-30-5,CCCCCCCCCCCCCCCCCC(=O)NCCNC(=O)CCCCCCCCCCCCCCCCC,CCCCCCCCCCCCCCCCCC(=O)NCCNC(=O)CCCCCCCCCCCCCCCCC,4.913,-5.444,8.613,-3.904,8.124
Dihexyl adipate,110-33-8,CCCCCCOC(=O)CCCCC(=O)OCCCCCC,CCCCCCOC(=O)CCCCC(=O)OCCCCCC,5.282,-4.2010000000000005,4.981,-3.283,7.178
Methyl decanoate,110-42-9,CCCCCCCCCC(=O)OC,CCCCCCCCCC(=O)OC,4.703,-3.409,4.5139999999999985,-2.031,6.078
2-Heptanone,110-43-0,CCCCCC(C)=O,CCCCCC(C)=O,2.81,-1.4880000000000002,1.849,-3.202,12.643
Sorbic acid,110-44-1,C/C=C/C=C/C(O)=O,C/C=C/C=C/C(=O)O,-1.541,-0.838,1.783,-8.86,5.022
Hexane,110-54-3,CCCCCC,CCCCCC,4.586,-2.291,3.888,2.186,6.252
Pentanal,110-62-3,CCCCC=O,CCCCC=O,2.651,-1.193,1.596,-2.715,8.096
"1,4-Butanediol",110-63-4,OCCCCO,OCCCCO,-0.725,0.102,-0.959,-8.975,10.497
"2-Butene-1,4-diol",110-64-5,OCC=CCO,OCC=CCO,-1.046,-0.04,-0.948,-9.581,9.794
"2-Butyne-1,4-diol",110-65-6,OCC#CCO,OCC#CCO,-1.0,0.22,-1.024,-8.552,16.606
"Ethane, 1,2-dimethoxy-",110-71-4,COCCOC,COCCOC,-0.112,-0.09,-0.337,-4.461,15.886
"Ethanol, 2-ethoxy-",110-80-5,CCOCCO,CCOCCO,-0.544,0.133,-0.365,-7.069,14.925
Cyclohexane,110-82-7,C1CCCCC1,C1CCCCC1,5.218,-2.891,3.587,0.847,8.939
Cyclohexene,110-83-8,C1CCC=CC1,C1=CCCCC1,3.279,-2.095,3.314,0.519,3.545
Piperazine,110-85-0,C1CNCCN1,C1CNCCN1,-3.153,-0.5589999999999999,-1.16,-8.062000000000001,9.581
Pyridine,110-86-1,c1ccncc1,c1ccncc1,0.768,-1.479,0.65,-3.872,5.363
"1,3,5-Trioxane",110-88-3,C1OCOCO1,C1OCOCO1,-0.401,1.139,-0.303,-7.327999999999999,16.702
Piperidine,110-89-4,C1CCNCC1,C1CCNCC1,-2.366,-1.4980000000000002,1.117,-4.324,10.638
Morpholine,110-91-8,C1COCCN1,C1COCCN1,-1.699,-0.063,-0.469,-7.001,7.735
"Hept-5-en-2-one, 6-methyl-",110-93-0,CC(C)=CCCC(C)=O,CC(=O)CCC=C(C)C,2.181,-1.7590000000000001,2.017,-3.9330000000000003,14.277
Glutaric acid,110-94-1,OC(=O)CCCC(O)=O,O=C(O)CCCC(=O)O,-3.874,-0.163,-0.789,-10.282,4.817
Diisobutylamine,110-96-3,CC(C)CNCC(C)C,CC(C)CNCC(C)C,-0.275,-2.263,2.612,-2.972,10.62
"2-Propanol, 1,1'-iminodi-",110-97-4,CC(O)CNCC(C)O,CC(O)CNCC(C)O,-1.495,-0.29,-0.655,-10.962,9.037
"2-Propanol, 1,1'-oxydi-",110-98-5,CC(O)COCC(C)O,CC(O)COCC(C)O,-0.882,-0.027000000000000003,-0.506,-9.583,15.541
Methyl octanate,111-11-5,CCCCCCCC(=O)OC,CCCCCCCC(=O)OC,4.37,-2.655,3.309,-2.3080000000000003,5.624
Heptanoic acid,111-14-8,CCCCCCC(O)=O,CCCCCCC(=O)O,0.521,-1.66,1.72,-5.105,4.61
2-Ethoxyethanol acetate,111-15-9,CCOCCO.CC(O)=O,CC(=O)O.CCOCCO,-2.736,0.377,-0.836,-7.542999999999999,6.221
"3,3'-Thiodi(propionic acid)",111-17-1,OC(=O)CCSCCC(O)=O,O=C(O)CCSCCC(=O)O,-2.124,-0.8370000000000001,-0.193,-9.771,5.462
Sebacic acid,111-20-6,OC(=O)CCCCCCCCC(O)=O,O=C(O)CCCCCCCCC(=O)O,-0.128,-2.0980000000000003,1.021,-7.285,5.047
1-Hexanol,111-27-3,CCCCCCO,CCCCCCO,2.019,-1.311,1.999,-3.912,7.349
"1,5-Pentanediol",111-29-5,OCCCCCO,OCCCCCO,-0.146,-0.239,-0.701,-8.182,9.802
Glutaraldehyde,111-30-8,O=CCCCC=O,O=CCCCC=O,0.882,-0.638,-0.485,-6.398,8.363
"Butane, 1-isocyanato-",111-36-4,CCCCN=C=O,CCCCN=C=O,0.954,-0.968,1.653,-4.775,2.84
Diethylenetriamine,111-40-0,NCCNCCN,NCCNCCN,-4.337,-0.6629999999999999,-2.4530000000000003,-10.792,10.486
"Ethanol, 2-((2-aminoethyl)amino)-",111-41-1,NCCNCCO,NCCNCCO,-3.295,-0.15,-1.988,-11.047,9.477
"2,2'-Iminodiethanol",111-42-2,OCCNCCO,OCCNCCO,-2.577,0.325,-1.411,-11.263,8.656
"Ether, bis(2-chloroethyl)-",111-44-4,ClCCOCCCl,ClCCOCCCl,4.243,-1.1320000000000001,1.32,-4.476,15.499
"Ethanol, 2,2'-oxybis-",111-46-6,OCCOCCO,OCCOCCO,-1.517,0.585,-1.472,-9.802,14.327
"Ethanol, 2,2'-thiodi-",111-48-8,OCCSCCO,OCCSCCO,-0.458,0.04,-0.534,-9.119,11.218
"1H-Azepine, hexahydro-",111-49-9,C1CCCNCC1,C1CCCNCC1,-1.872,-1.6780000000000002,1.558,-3.698,10.369
"1,2-Ethanediol, diacetate",111-55-7,CC(O)=O.CC(O)=O.OCCO,CC(=O)O.CC(=O)O.OCCO,-4.875,0.787,-1.388,-9.31,5.64
"Octadecanamide, N-(2-hydroxyethyl)-",111-57-9,CCCCCCCCCCCCCCCCCC(=O)NCCO,CCCCCCCCCCCCCCCCCC(=O)NCCO,3.978,-4.422,6.182,-4.828,7.857
2-Hydroxyethyl stearate,111-60-4,CCCCCCCCCCCCCCCCCC(=O)OCCO,CCCCCCCCCCCCCCCCCC(=O)OCCO,4.836,-4.711,7.176,-3.15,8.728
Octane,111-65-9,CCCCCCCC,CCCCCCCC,5.048,-3.2319999999999998,4.7410000000000005,1.71,5.471
1-Octene,111-66-0,CCCCCCC=C,C=CCCCCCC,4.893,-3.207,4.606,1.194,5.664