chemical_name,cas,smiles,canonical_smiles,log_p,log_s,kow,water-energy,pka
4-Pentenenitrile,592-51-8,C=CCCC#N,C=CCCC#N,0.07,-1.146,0.698,-3.827,14.73
"Trimethylamine, hydrochloride",593-81-7,Cl.CN(C)C,CN(C)C.Cl,-2.767,-0.47700000000000004,0.479,-3.89,15.483
"Carbonic acid, compd. with guanidine (1:2)",593-85-1,NC(N)=N.NC(N)=N.OC(O)=O,N=C(N)N.N=C(N)N.O=C(O)O,-7.181,1.5630000000000002,-3.497,-14.259,9.566
"Methanesulfenyl chloride, trichloro-",594-42-3,ClSC(Cl)(Cl)Cl,ClSC(Cl)(Cl)Cl,5.465,-3.155,3.24,-1.4040000000000001,10.208
"1,3-Propanediol, 2-ethyl-2-nitro-",597-09-1,CCC(CO)(CO)[N+]([O-])=O,CCC(CO)(CO)[N+](=O)[O-],-0.364,-1.074,0.191,-10.739,7.796
"Propanal, 3-hydroxy-2,2-dimethyl-",597-31-9,CC(C)(CO)C=O,CC(C)(C=O)CO,0.454,-0.599,-0.505,-9.11,11.971
"Phosphorothioic acid, O,O,O-triphenyl ester",597-82-0,S=[P](Oc1ccccc1)(Oc2ccccc2)Oc3ccccc3,S=P(Oc1ccccc1)(Oc1ccccc1)Oc1ccccc1,3.957,-5.767,5.376,-4.926,3.289
Methyl carbamate,598-55-0,COC(N)=O,COC(N)=O,-0.586,0.573,-0.737,-9.164,10.372
"Ethylamine, N,N-dimethyl-",598-56-1,CCN(C)C,CCN(C)C,-3.858,-0.7809999999999999,0.768,-3.662,10.229
Manganese carbonate,598-62-9,[Mn++].[O-]C([O-])=O,O=C([O-])[O-].[Mn+2],-1.64,-0.32299999999999995,0.525,-4.258,17.512
"1,1-Dimethylguanidinium sulphate (2:1)",598-65-2,CN(C)C(N)=N.CN(C)C(N)=N.O[S](O)(=O)=O,CN(C)C(=N)N.CN(C)C(=N)N.O=S(=O)(O)O,-2.814,0.893,-2.878,-13.945,11.536
"Propanoic acid, 2-bromo-",598-72-1,CC(Br)C(O)=O,CC(Br)C(=O)O,-2.46,-0.7140000000000001,1.027,-8.886000000000001,2.911
"Propionic acid, 2-chloro-",598-78-7,CC(Cl)C(O)=O,CC(Cl)C(=O)O,-2.891,-0.376,0.915,-8.573,2.353
"Propanoic acid, 2,2-dimethyl-, methyl ester",598-98-1,COC(=O)C(C)(C)C,COC(=O)C(C)(C)C,3.762,-1.671,1.909,-3.892,9.124
"alpha-Hydroxy-beta,beta-dimethyl-gamma-butyrolactone",599-04-2,CC1(C)COC(=O)C1O,CC1(C)COC(=O)C1O,0.547,-0.732,-0.828,-9.606,5.313
"Phenol, 4-(1-methyl-1-phenylethyl)-",599-64-4,CC(C)(c1ccccc1)c2ccc(O)cc2,CC(C)(c1ccccc1)c1ccc(O)cc1,4.083,-4.329,4.223,-5.656000000000001,9.78
"Phosphine, triphenyl-",603-35-0,c1ccc(cc1)P(c2ccccc2)c3ccccc3,c1ccc(P(c2ccccc2)c2ccccc2)cc1,3.811,-5.202999999999999,4.705,-5.747000000000001,4.521
Ethyl 2-methylacetoacetate,609-14-3,CCOC(=O)C(C)C(C)=O,CCOC(=O)C(C)C(C)=O,0.585,-1.235,0.84,-6.5,10.661
"Benzene, 2,4-dichloro-1-nitro-",611-06-3,[O-][N+](=O)c1ccc(Cl)cc1Cl,O=[N+]([O-])c1ccc(Cl)cc1Cl,3.723,-3.648,2.958,-4.212,5.946
2-ethyltoluene,611-14-3,CCc1ccccc1C,CCc1ccccc1C,4.055,-3.031,3.744,-1.043,4.201
"Benzene, 1-chloro-2-(chloromethyl)-",611-19-8,ClCc1ccccc1Cl,ClCc1ccccc1Cl,4.203,-3.466,3.208,-2.1830000000000003,6.471
"Benzonitrile, 2-hydroxy-",611-20-1,Oc1ccccc1C#N,N#Cc1ccccc1O,0.928,-1.642,1.5590000000000002,-8.501,5.984
Bromhexine hydrochloride,611-75-6,[H+].[Cl-].CC(N)(C1CCCCC1)c2cc(Br)cc(Br)c2N,CC(N)(c1cc(Br)cc(Br)c1N)C1CCCCC1.[Cl-].[H+],2.178,-4.8839999999999995,4.976,-6.763999999999999,7.705
"Benzene, 1,1'-ethylidenebis-",612-00-0,CC(c1ccccc1)c2ccccc2,CC(c1ccccc1)c1ccccc1,3.986,-4.23,4.631,-2.819,4.539
"3,3'-dichlorobenzidine dihydrochloride",612-83-9,Cl.Cl.Nc1ccc(cc1Cl)c2ccc(N)c(Cl)c2,Cl.Cl.Nc1ccc(-c2ccc(N)c(Cl)c2)cc1Cl,2.724,-3.7539999999999996,3.2880000000000003,-7.926,8.236
Benzoyl cyanide,613-90-1,O=C(C#N)c1ccccc1,N#CC(=O)c1ccccc1,2.059,-2.069,1.682,-6.941,-1.919
"Peroxybenzoic acid, tert-butyl ester",614-45-9,CC(C)(C)OOC(=O)c1ccccc1,CC(C)(C)OOC(=O)c1ccccc1,4.517,-3.3989999999999996,3.909,-5.928999999999999,3.05
Dimethyl carbonate,616-38-6,COC(=O)OC,COC(=O)OC,0.943,-0.434,0.552,-3.093,4.387
2-Pyrrolidinone,616-45-5,O=C1CCCN1,O=C1CCCN1,-0.696,-0.281,-1.356,-10.192,12.957
"Nitrobenzene, 3,5-dichloro-",618-62-2,[O-][N+](=O)c1cc(Cl)cc(Cl)c1,O=[N+]([O-])c1cc(Cl)cc(Cl)c1,4.302,-3.688,3.252,-4.418,2.734
"1,3-Benzenedicarboxylic acid, 5-nitro-",618-88-2,OC(=O)c1cc(cc(c1)[N+]([O-])=O)C(O)=O,O=C(O)c1cc(C(=O)O)cc([N+](=O)[O-])c1,-2.0580000000000003,-2.125,1.904,-11.209000000000001,2.878
"Phenol, m-ethyl-",620-17-7,CCc1cccc(O)c1,CCc1cccc(O)c1,3.13,-2.384,2.589,-6.232,9.907
"Benzonitrile, 3-methyl-",620-22-4,Cc1cccc(c1)C#N,Cc1cccc(C#N)c1,2.9210000000000003,-2.2880000000000003,2.095,-4.19,4.349
"Propane-1,2,3-triyl trisheptanoate",620-67-7,CCCCCCC(=O)OCC(COC(=O)CCCCCC)OC(=O)CCCCCC,CCCCCCC(=O)OCC(COC(=O)CCCCCC)OC(=O)CCCCCC,4.916,-4.441,5.6,-4.003,7.811
"2-Butenedioic acid (2Z)-, dicyclohexyl ester",621-13-6,O=C(OC1CCCCC1)\C=C/C(=O)OC2CCCCC2,O=C(/C=C\C(=O)OC1CCCCC1)OC1CCCCC1,4.631,-3.9010000000000002,5.029,-5.3870000000000005,7.661
"Benzene, 1-ethyl-4-methyl-",622-96-8,CCc1ccc(C)cc1,CCc1ccc(C)cc1,4.15,-3.1210000000000004,3.847,-1.515,4.455
"Styrene, 4-methyl-",622-97-9,Cc1ccc(C=C)cc1,C=Cc1ccc(C)cc1,3.326,-3.333,3.375,-2.141,3.562
"2-Butenedioic acid (2E)-, diethyl ester",623-91-6,CCOC(=O)\C=C\C(=O)OCC,CCOC(=O)/C=C/C(=O)OCC,1.609,-1.754,2.05,-6.742999999999999,6.077
"1-Butanol, 2-methyl-, acetate",624-41-9,CCC(C)CO.CC(O)=O,CC(=O)O.CCC(C)CO,-1.957,-0.314,-0.241,-5.559,6.422
Dimethyl maleate,624-48-6,COC(=O)\C=C/C(=O)OC,COC(=O)/C=C\C(=O)OC,0.369,-0.9940000000000001,1.056,-7.976,3.526
Pentyl propanoate,624-54-4,CCCCCOC(=O)CC,CCCCCOC(=O)CC,4.065,-2.22,2.532,-2.445,9.533
"2-Butene, (2E)-",624-64-6,C\C=C\C,C/C=C/C,2.265,-1.704,1.98,1.824,8.142
"Methane, isocyanato-",624-83-9,CN=C=O,CN=C=O,-1.997,0.46399999999999997,-0.142,-6.697,1.964
Dimethyl disulfide,624-92-0,CSSC,CSSC,1.866,-1.02,1.727,-2.13,3.298
"Urea, ethyl-",625-52-5,CCNC(N)=O,CCNC(N)=O,-0.903,0.27399999999999997,-0.8140000000000001,-12.175,2.605
1-Methylethyl formate,625-55-8,CC(C)OC=O,CC(C)OC=O,1.3630000000000002,-0.7879999999999999,0.838,-2.573,9.085
Isophthalonitrile,626-17-5,N#Cc1cccc(c1)C#N,N#Cc1cccc(C#N)c1,1.15,-1.734,1.137,-6.772,7.651
Acetone azine,627-70-3,CC(C)=NN=C(C)C,CC(C)=NN=C(C)C,-0.8640000000000001,-0.983,2.9760000000000004,-5.369,10.47
"Stearic acid, ethylene ester",627-83-8,CCCCCCCCCCCCCCCCCC(=O)OCCOC(=O)CCCCCCCCCCCCCCCCC,CCCCCCCCCCCCCCCCCC(=O)OCCOC(=O)CCCCCCCCCCCCCCCCC,5.492000000000001,-5.801,9.63,-1.99,8.309
Dimethyl adipate,627-93-0,COC(=O)CCCCC(=O)OC,COC(=O)CCCCC(=O)OC,2.5,-1.633,0.868,-4.843999999999999,5.071
"Pyridine, hydrochloride",628-13-7,Cl.c1ccncc1,Cl.c1ccncc1,0.903,-1.479,0.94,-3.687,13.34
Pentyl acetate,628-63-7,CCCCCOC(C)=O,CCCCCOC(C)=O,3.1060000000000003,-1.7790000000000001,2.023,-2.64,11.112
"Acetonitrile, 2,2'-iminobis-",628-87-5,N#CCNCC#N,N#CCNCC#N,-1.449,-0.095,-0.532,-10.277000000000001,3.966
"1,2-Ethanediol, dinitrate",628-96-6,OCCO.O[N+]([O-])=O.O[N+]([O-])=O,O=[N+]([O-])O.O=[N+]([O-])O.OCCO,-3.843,0.77,-1.141,-8.276,2.284
"Hexane-1,6-diol",629-11-8,OCCCCCCO,OCCCCCCO,0.336,-0.659,-0.471,-7.502000000000001,9.129
"Dodecanoic acid, sodium salt",629-25-4,[Na+].CCCCCCCCCCCC([O-])=O,CCCCCCCCCCCC(=O)[O-].[Na+],4.37,-3.886,5.848,-2.273,4.001
Tridecane,629-50-5,CCCCCCCCCCCCC,CCCCCCCCCCCCC,5.3729999999999976,-4.9110000000000005,7.562,1.018,6.739
Tetradecane,629-59-4,CCCCCCCCCCCCCC,CCCCCCCCCCCCCC,5.407,-5.103,8.044,0.9359999999999999,6.873
Pentadecane,629-62-9,CCCCCCCCCCCCCCC,CCCCCCCCCCCCCCC,5.437,-5.267,8.46,0.863,6.984
1-Hexadecene,629-73-2,CCCCCCCCCCCCCCC=C,C=CCCCCCCCCCCCCCC,5.36,-5.3839999999999995,8.809,0.501,6.914
1-Pentadecanol,629-76-5,CCCCCCCCCCCCCCCO,CCCCCCCCCCCCCCCO,4.435,-4.603,6.797999999999999,-1.905,7.906
Hexadecanenitrile,629-79-8,CCCCCCCCCCCCCCCC#N,CCCCCCCCCCCCCCCC#N,4.6,-4.968,7.131,-1.3330000000000002,9.88
1-Eicosanol,629-96-9,CCCCCCCCCCCCCCCCCCCCO,CCCCCCCCCCCCCCCCCCCCO,4.814,-5.319,8.5,-1.499,8.043
Carbon monoxide,630-08-0,C=O,C=O,-0.093,-0.11800000000000001,0.454,-2.793,1.149
"Ethane, 1,1,1,2-tetrachloro-",630-20-6,ClCC(Cl)(Cl)Cl,ClCC(Cl)(Cl)Cl,4.842,-2.568,2.867,-1.395,10.825
"Acetic acid, ammonium salt",631-61-8,[NH4+].CC([O-])=O,CC(=O)[O-].[NH4+],-2.279,-0.091,-0.056,-4.298,10.941
"Phthalic anhydride, tetrabromo-",632-79-1,Brc1c(Br)c(Br)c2C(=O)OC(=O)c2c1Br,O=C1OC(=O)c2c(Br)c(Br)c(Br)c(Br)c21,3.57,-6.572,3.736,-6.917000000000001,5.74
Aluminium stearate,637-12-7,[Al+3].CCCCCCCCCCCCCCCCCC([O-])=O.CCCCCCCCCCCCCCCCCC([O-])=O.CCCCCCCCCCCCCCCCCC([O-])=O,CCCCCCCCCCCCCCCCCC(=O)[O-].CCCCCCCCCCCCCCCCCC(=O)[O-].CCCCCCCCCCCCCCCCCC(=O)[O-].[Al+3],5.115,-5.04,8.626,-1.591,8.682
"Propane, 2-ethoxy-2-methyl-",637-92-3,CCOC(C)(C)C,CCOC(C)(C)C,4.112,-1.4880000000000002,1.743,-1.719,14.681
"1,3,5-triazine-2,4,6(1H,3H,5H)-trithione",638-16-4,S=C1NC(=S)NC(=S)N1,S=c1[nH]c(=S)[nH]c(=S)[nH]1,-0.8809999999999999,-1.063,-0.5660000000000001,-17.307000000000002,0.596
Manganese (2+) acetate,638-38-0,[Mn++].CC([O-])=O.CC([O-])=O,CC(=O)[O-].CC(=O)[O-].[Mn+2],-2.017,-0.105,0.35100000000000003,-4.803,11.421
Stearonitrile,638-65-3,CCCCCCCCCCCCCCCCCC#N,CCCCCCCCCCCCCCCCCC#N,4.743,-5.245,7.851,-1.213,9.72
"Phosphonous dichloride, phenyl-",644-97-3,ClP(Cl)c1ccccc1,ClP(Cl)c1ccccc1,3.772,-3.577,2.557,-3.315,4.21
"2-Hexenal, 2-ethyl-",645-62-5,CCCC=C(CC)C=O,CCCC=C(C=O)CC,3.306,-2.166,2.66,-3.0789999999999997,6.091
"1,3-Dioxolane",646-06-0,C1COCO1,C1COCO1,-0.429,0.7240000000000001,-0.413,-6.5920000000000005,14.639
"Octadecanoic acid, 2-methylpropyl ester",646-13-9,CCCCCCCCCCCCCCCCCC(=O)OCC(C)C,CCCCCCCCCCCCCCCCCC(=O)OCC(C)C,5.77,-5.257999999999999,8.469,-1.3090000000000002,8.085
Sodium trichloroacetate,650-51-1,[Na+].[O-]C(=O)C(Cl)(Cl)Cl,O=C([O-])C(Cl)(Cl)Cl.[Na+],0.204,-1.9380000000000002,1.653,-3.4160000000000004,2.913
"L-Lysine, monohydrochloride",657-27-2,[Cl-].NCCCC[C@H](N)C(O)=O.[H+],NCCCC[C@H](N)C(=O)O.[Cl-].[H+],-2.082,-1.206,-2.678,-10.679,7.545
Sodium p-toluenesulfonate,657-84-1,[Na+].Cc1ccc(cc1)[S]([O-])(=O)=O,Cc1ccc(S(=O)(=O)[O-])cc1.[Na+],2.173,-2.082,1.77,-7.7860000000000005,3.497
1-Docosanol,661-19-8,CCCCCCCCCCCCCCCCCCCCCCO,CCCCCCCCCCCCCCCCCCCCCCO,4.912,-5.515,8.969,-1.385,8.079
"3-Butenoic acid, 3-hydroxy-, lactone",674-82-8,C=C1CC(=O)O1,C=C1CC(=O)O1,0.234,-0.757,0.046,-5.816,4.231
"Silane, dichloromethyl(3,3,3-trifluoropropyl)-",675-62-7,FC(F)(F)CC[SiH2]C(Cl)Cl,FC(F)(F)CC[SiH2]C(Cl)Cl,4.604,-3.221,2.604,-1.131,9.623
"1-Propene, 3,3,3-trifluoro-",677-21-4,FC(F)(F)C=C,C=CC(F)(F)F,4.316,-2.1830000000000003,1.338,1.6880000000000002,12.935
"1-Decanol, 3,3,4,4,5,5,6,6,7,7,8,8,9,9,10,10,10-heptadecafluoro-",678-39-7,OCCC(F)(F)C(F)(F)C(F)(F)C(F)(F)C(F)(F)C(F)(F)C(F)(F)C(F)(F)F,OCCC(F)(F)C(F)(F)C(F)(F)C(F)(F)C(F)(F)C(F)(F)C(F)(F)C(F)(F)F,2.983,-4.62,4.952,2.184,10.735
"Trimethylolpropane, diallyl ether",682-09-7,CCC(CO)(COCC=C)COCC=C,C=CCOCC(CC)(CO)COCC=C,3.276,-2.215,1.389,-7.215,10.101
"1-Dodecanaminium, N-(carboxymethyl)-N,N-dimethyl-, inner salt",683-10-3,[Na+].[Cl-].CCCCCCCCCCCC[N+](C)(C)CC([O-])=O,CCCCCCCCCCCC[N+](C)(C)CC(=O)[O-].[Cl-].[Na+],1.296,-3.987,1.2990000000000002,-2.748,6.905
"Stannane, dibutyldichloro-",683-18-1,CCCC[Sn](Cl)(Cl)CCCC,CCCC[Sn](Cl)(Cl)CCCC,5.283,-4.171,4.244,-0.981,9.785
"Propanoic acid, 2-hydroxy-, ethyl ester",687-47-8,CCOC(=O)C(C)O,CCOC(=O)C(C)O,0.387,-0.4370000000000001,0.219,-8.617,7.886
2-Ethylhexyl methacrylate,688-84-6,CCCCC(CC)COC(=O)C(C)=C,C=C(C)C(=O)OCC(CC)CCCC,5.078,-3.928,4.839,-2.5540000000000003,7.02
4-Methylpent-1-ene,691-37-2,CC(C)CC=C,C=CCC(C)C,4.808,-2.358,3.845,1.95,8.776
"Ethane, 1-chloro-2-(ethylthio)-",693-07-2,CCSCCCl,CCSCCCl,4.727,-1.6880000000000002,2.052,-2.404,12.368
Dodecanedioic acid,693-23-2,OC(=O)CCCCCCCCCCC(O)=O,O=C(O)CCCCCCCCCCC(=O)O,0.4,-2.722,2.1590000000000003,-6.521,4.898
"1-Hexadecanaminium, N-(carboxymethyl)-N,N-dimethyl-, inner salt",693-33-4,CCCCCCCCCCCCCCCC[N+](C)(C)CC([O-])=O,CCCCCCCCCCCCCCCC[N+](C)(C)CC(=O)[O-],2.175,-4.794,3.074,-2.2359999999999998,8.461
"Propanoic acid, 3,3'-thiobis-, dioctadecyl ester",693-36-7,CCCCCCCCCCCCCCCCCCOC(=O)CCSCCC(=O)OCCCCCCCCCCCCCCCCCC,CCCCCCCCCCCCCCCCCCOC(=O)CCSCCC(=O)OCCCCCCCCCCCCCCCCCC,5.638,-5.86,9.622,-2.153,8.665
12-aminododecanoic acid,693-57-2,NCCCCCCCCCCCC(O)=O,NCCCCCCCCCCCC(=O)O,-0.14,-3.457,1.31,-5.527,8.689
"1,2-Cyclohexanediamine",694-83-7,NC1CCCCC1N,NC1CCCCC1N,-2.571,-1.7619999999999998,-0.15,-8.06,8.871
"1,4-Benzenediol, 2,3,5-trimethyl-",700-13-0,Cc1cc(O)c(C)c(C)c1O,Cc1cc(O)c(C)c(C)c1O,3.0780000000000003,-2.404,1.714,-8.197000000000001,9.964
"Propanamide, N-(3,4-dichlorophenyl)-",709-98-8,CCC(=O)Nc1ccc(Cl)c(Cl)c1,CCC(=O)Nc1ccc(Cl)c(Cl)c1,3.748,-3.552,3.178,-8.28,8.238
"Benzophenone, 2-Amino-5-chloro-",719-59-5,Nc1ccc(Cl)cc1C(=O)c2ccccc2,Nc1ccc(Cl)cc1C(=O)c1ccccc1,3.128,-4.144,3.787,-8.039,3.924
"Phenol, 2,4,6-tri-tert-butyl-",732-26-3,CC(C)(C)c1cc(c(O)c(c1)C(C)(C)C)C(C)(C)C,CC(C)(C)c1cc(C(C)(C)C)c(O)c(C(C)(C)C)c1,5.975,-4.9830000000000005,5.324,-3.2089999999999996,10.05
"Stannane, dichlorodimethyl-",753-73-1,C[Sn](C)(Cl)Cl,C[Sn](C)(Cl)Cl,5.095,-1.9380000000000002,1.798,-1.545,21.858
"Phosphonic acid, methyl-, dimethyl ester",756-79-6,CO[P](C)(=O)OC,COP(C)(=O)OC,0.919,-0.099,-0.7809999999999999,-6.624,2.734
Methyl ((dimethoxyphosphinothioyl)thio) acetate,757-86-8,COC(=O)CS[P](=S)(OC)OC,COC(=O)CSP(=S)(OC)OC,1.384,-2.406,1.267,-6.269,2.168
"1-Butene, 3,4-dichloro-",760-23-6,ClCC(Cl)C=C,C=CC(Cl)CCl,4.247,-2.376,1.891,-1.182,9.088
"Hexanoyl chloride, 2-ethyl-",760-67-8,CCCCC(CC)C(Cl)=O,CCCCC(CC)C(=O)Cl,4.159,-2.907,3.675,-1.7890000000000001,8.251
Diethyl phosphonate,762-04-9,CCO[PH](=O)OCC,CCO[PH](=O)OCC,3.0580000000000003,-0.39899999999999997,-0.542,-7.587000000000001,4.539
"3-Buten-1-ol, 3-methyl-",763-32-6,CC(=C)CCO,C=C(C)CCO,0.4370000000000001,-0.894,1.266,-5.622000000000001,11.825
Ethyl 3-ethoxypropionate,763-69-9,CCOCCC(=O)OCC,CCOCCC(=O)OCC,2.5980000000000003,-1.225,0.7140000000000001,-4.617,10.571
"2-Butene, 1,4-dichloro-",764-41-0,ClCC=CCCl,ClCC=CCCl,4.404,-1.9069999999999998,1.851,-1.321,9.445
Nonanoyl chloride,764-85-2,CCCCCCCCC(Cl)=O,CCCCCCCCC(=O)Cl,4.56,-3.123,4.396,-2.194,7.107
"2-Propanol, 1-phenoxy-",770-35-4,CC(O)COc1ccccc1,CC(O)COc1ccccc1,1.918,-2.35,1.776,-6.1,4.768
Triphenylphosphine oxide,791-28-6,O=[P](c1ccccc1)(c2ccccc2)c3ccccc3,O=P(c1ccccc1)(c1ccccc1)c1ccccc1,3.577,-4.8660000000000005,3.182,-8.727,6.387
"p-Phenylenediamine, N-(1,3-dimethylbutyl)-N'-phenyl-",793-24-8,CC(C)CC(C)Nc1ccc(Nc2ccccc2)cc1,CC(C)CC(C)Nc1ccc(Nc2ccccc2)cc1,3.793,-4.784,5.666,-6.8660000000000005,5.661
"4,4'-[methylenebis(methylimino)]bis[1,2-dihydro-1,5-dimethyl-2-phenyl-3H-pyrazol-3-one]",810-16-2,CN(CN(C)C1=C(C)N(C)N(C1=O)c2ccccc2)C3=C(C)N(C)N(C3=O)c4ccccc4,Cc1c(N(C)CN(C)c2c(C)n(C)n(-c3ccccc3)c2=O)c(=O)n(-c2ccccc2)n1C,0.705,-3.489,2.214,-11.859000000000002,-0.504
"Ethane, 1,1,2,2-tetrafluoro-",811-97-2,FC(F)C(F)F,FC(F)C(F)F,2.8360000000000003,-1.7530000000000001,0.768,0.306,12.987
"Phosphoric acid, monomethyl ester",812-00-0,CO[P]([O-])([O-])=O,COP(=O)([O-])[O-],1.034,-0.03,-0.228,-7.349,15.183
"Propanoic acid, 2-hydroxy-, calcium salt (2;1)",814-80-2,[Ca++].CC(O)C([O-])=O.CC(O)C([O-])=O,CC(O)C(=O)[O-].CC(O)C(=O)[O-].[Ca+2],-1.058,-0.057999999999999996,-0.14400000000000002,-10.241,8.561
"Stannane, dibutyloxo-",818-08-6,CCCC[Sn](=O)CCCC,CCCC[Sn](=O)CCCC,4.811,-2.259,2.6060000000000003,-3.58,6.577
2-Hydroxyethyl acrylate,818-61-1,OCCOC(=O)C=C,C=CC(=O)OCCO,-0.08800000000000001,-0.607,-0.182,-8.305,11.954
Hexamethylene diisocyanate,822-06-0,O=C=NCCCCCCN=C=O,O=C=NCCCCCCN=C=O,0.955,-1.7380000000000002,1.298,-6.626,1.83
"Tetradecanoic acid, sodium salt",822-12-8,[Na+].CCCCCCCCCCCCCC([O-])=O,CCCCCCCCCCCCCC(=O)[O-].[Na+],4.613,-4.323,6.875,-2.05,4.411
"Stearic acid, sodium salt",822-16-2,[Na+].CCCCCCCCCCCCCCCCCC([O-])=O,CCCCCCCCCCCCCCCCCC(=O)[O-].[Na+],4.922,-4.9460000000000015,8.285,-1.7069999999999999,5.072
4-Methylimidazole,822-36-6,Cc1c[nH]cn1,Cc1c[nH]cn1,-0.601,-0.857,0.16399999999999998,-9.875,7.978
"Phenol, p-nitro-, sodium salt",824-78-2,[Na+].[O-]c1ccc(cc1)[N+]([O-])=O,O=[N+]([O-])c1ccc([O-])cc1.[Na+],1.875,-2.32,1.664,-6.18,5.106
"4-Piperidinone, 2,2,6,6-tetramethyl-",826-36-8,CC1(C)CC(=O)CC(C)(C)N1,CC1(C)CC(=O)CC(C)(C)N1,-0.818,-1.64,0.44,-6.722,7.65
Cyclododecanone,830-13-7,O=C1CCCCCCCCCCC1,O=C1CCCCCCCCCCC1,4.069,-1.882,2.455,-2.3480000000000003,10.678
"2-Naphthalenesulfonic acid, 6-hydroxy-, monopotassium salt",833-66-9,[K+].Oc1ccc2cc(ccc2c1)[S]([O-])(=O)=O,O=S(=O)([O-])c1ccc2cc(O)ccc2c1.[K+],2.3680000000000003,-2.765,1.957,-10.272,9.023
Ametryn,834-12-8,CCNc1nc(NC(C)C)nc(SC)n1,CCNc1nc(NC(C)C)nc(SC)n1,3.069,-3.295,2.958,-8.354,2.571
"Aniline, 4-nitro-N-phenyl-",836-30-6,[O-][N+](=O)c1ccc(Nc2ccccc2)cc1,O=[N+]([O-])c1ccc(Nc2ccccc2)cc1,3.86,-3.637,3.967,-8.076,0.797
"Phenol, 2-[1-(4-hydroxyphenyl)-1-methylethyl]-",837-08-1,CC(C)(c1ccc(O)cc1)c2ccccc2O,CC(C)(c1ccc(O)cc1)c1ccccc1O,3.627,-4.09,3.177,-7.624,9.956
"Aniline, 4,4'-methylenebis(2-methyl)-",838-88-0,Cc1cc(Cc2ccc(N)c(C)c2)ccc1N,Cc1cc(Cc2ccc(N)c(C)c2)ccc1N,1.909,-3.458,2.964,-7.875,5.116
"1,3,5-Triazine-2,4,6(1H,3H,5H)-trione, 1,3,5-tris(2-hydroxyethyl)-",839-90-7,OCCN1C(=O)N(CCO)C(=O)N(CCO)C1=O,O=c1n(CCO)c(=O)n(CCO)c(=O)n1CCO,-0.317,-0.773,-0.285,-16.887,10.618
"2,6-Naphthalenedicarboxylic acid, dimethyl ester",840-65-3,COC(=O)c1ccc2cc(ccc2c1)C(=O)OC,COC(=O)c1ccc2cc(C(=O)OC)ccc2c1,3.862,-3.897,3.423,-7.318,1.716
"Dipotassium 7-hydroxynaphthalene-1,3-disulphonate",842-18-2,[K+].[K+].Oc1ccc2cc(cc(c2c1)[S]([O-])(=O)=O)[S]([O-])(=O)=O,O=S(=O)([O-])c1cc(S(=O)(=O)[O-])c2cc(O)ccc2c1.[K+].[K+],1.495,-2.64,1.596,-10.842,8.153
"2-Propanol, 2-methyl-, potassium salt",865-47-4,[K+].CC(C)(C)[O-],CC(C)(C)[O-].[K+],3.4560000000000004,-1.5490000000000002,1.4580000000000002,-2.271,8.643
Tripotassium citrate,866-84-2,[K+].[K+].[K+].OC(CC([O-])=O)(CC([O-])=O)C([O-])=O,O=C([O-])CC(O)(CC(=O)[O-])C(=O)[O-].[K+].[K+].[K+],-1.436,-1.2830000000000001,0.25,-9.812000000000001,7.61
"Acetic acid, (diethoxyphosphinyl)-, ethyl ester",867-13-0,CCOC(=O)C[P](=O)(OCC)OCC,CCOC(=O)CP(=O)(OCC)OCC,2.7,-1.699,0.945,-7.446000000000001,7.885
Sodium 2-hydroxy-propionate,867-56-1,[Na+].CC(O)C([O-])=O,CC(O)C(=O)[O-].[Na+],-1.071,-0.201,-0.223,-9.829,3.235
2-Hydroxyethyl methacrylate,868-77-9,CC(=C)C(=O)OCCO,C=C(C)C(=O)OCCO,0.841,-1.085,0.385,-7.96,9.902
Dimethyl phosphonate,868-85-9,CO[PH](=O)OC,CO[PH](=O)OC,0.889,0.168,-1.298,-8.038,2.602
"Methanesulfonic acid, hydroxy-, monosodoium salt",870-72-4,[Na+].OC[S]([O-])(=O)=O,O=S(=O)([O-])CO.[Na+],-0.28300000000000003,0.516,-0.903,-11.714,5.369
1-Decene,872-05-9,CCCCCCCCC=C,C=CCCCCCCCC,5.081,-4.046,5.722,0.912,5.918
"2-Pyrrolidinone, 1-methyl-",872-50-4,CN1CCCC1=O,CN1CCCC1=O,-0.634,-0.61,-0.628,-9.267000000000001,9.248
"3,3,5-trimethylcyclohexan-1-one",873-94-9,CC1CC(=O)CC(C)(C)C1,CC1CC(=O)CC(C)(C)C1,4.1389999999999985,-1.946,2.2430000000000003,-2.975,11.05
D-(-)-alpha-phenylglycine,875-74-1,N[C@@H](C(O)=O)c1ccccc1,N[C@@H](C(=O)O)c1ccccc1,-1.42,-1.6469999999999998,-1.3230000000000002,-12.734000000000002,4.094
"4,4'-azo-3-hydroxynaphthalene-1-sulphonate",887-76-3,Oc1cc(c2ccccc2c1[N+]#N)[S]([O-])(=O)=O,N#[N+]c1c(O)cc(S(=O)(=O)[O-])c2ccccc12,0.7240000000000001,-2.7110000000000003,1.838,-10.193999999999999,3.759
"Ethanol, 2,2'-[(1-methylethylidene)bis(4,1-phenyleneoxy)]bis-",901-44-0,CC(C)(c1ccc(OCCO)cc1)c2ccc(OCCO)cc2,CC(C)(c1ccc(OCCO)cc1)c1ccc(OCCO)cc1,3.322,-4.2,2.821,-7.377999999999999,8.083
Sodium cyanate,917-61-3,[Na+].[O-]C#N,N#C[O-].[Na+],-1.093,-0.267,0.464,-5.2589999999999995,0.673
"1-Propylamine, 3-(triethoxysilyl)-",919-30-2,CCO[Si](CCCN)(OCC)OCC,CCO[Si](CCCN)(OCC)OCC,-0.59,-2.7289999999999996,-0.382,-6.617000000000001,12.201
"Propionitrile, 3-(triethoxysilyl)-",919-31-3,CCO[Si](CCC#N)(OCC)OCC,CCO[Si](CCC#N)(OCC)OCC,1.325,-2.485,0.415,-6.381,16.249
2-Hydroxypropyl methacrylate,923-26-2,CC(O)COC(=O)C(C)=C,C=C(C)C(=O)OCC(C)O,1.365,-1.35,0.899,-7.688,9.125
"Acrylamide, N-(hydroxymethyl)-",924-42-5,OCNC(=O)C=C,C=CC(=O)NCO,-0.868,0.084,-0.705,-12.725999999999999,9.438
"2-Butene, 1,3-dichloro-",926-57-8,CC(Cl)=CCCl,CC(Cl)=CCCl,4.428,-2.293,2.398,-1.005,16.472
"Propaneperoxoic acid, 2,2-dimethyl-, 1,1-dimethylethyl ester",927-07-1,CC(C)(C)OOC(=O)C(C)(C)C,CC(C)(C)OOC(=O)C(C)(C)C,5.4529999999999985,-2.353,4.044,-4.928999999999999,9.446
"2-Heptanone, 6-methyl-",928-68-7,CC(C)CCCC(C)=O,CC(=O)CCCC(C)C,3.063,-1.9,2.148,-2.384,12.039
"Glycine, N-(carboxymethyl)-, disodium salt",928-72-3,[Na+].[Na+].[O-]C(=O)CNCC([O-])=O,O=C([O-])CNCC(=O)[O-].[Na+].[Na+],-0.484,-0.514,-1.267,-9.708,4.307
"Ethanol, 2-(2-aminoethoxy)-",929-06-6,NCCOCCO,NCCOCCO,-2.7260000000000004,0.08900000000000001,-1.814,-9.562999999999999,9.254