chemical_name,cas,smiles,canonical_smiles,log_p,log_s,kow,water-energy,pka
"Cyclohexane, 5-isocyanato-1-(isocyanatomethyl)-1,3,3-trimethyl-",4098-71-9,CC1(C)CC(CC(C)(CN=C=O)C1)N=C=O,CC1(C)CC(N=C=O)CC(C)(CN=C=O)C1,1.079,-2.1919999999999997,2.286,-5.617999999999999,2.13
"Butanamide, 2-chloro-N-methyl-3-oxo-",10/3/4116,CNC(=O)C(Cl)C(C)=O,CNC(=O)C(Cl)C(C)=O,-0.815,-0.555,-0.7609999999999999,-11.38,1.939
"Propanoic acid, 3,3'-thiobis-, dimethyl ester",4131-74-2,COC(=O)CCSCCC(=O)OC,COC(=O)CCSCCC(=O)OC,2.619,-1.709,0.875,-5.575,8.54
2-Butenal,4170-30-3,CC=CC=O,CC=CC=O,-0.586,-0.6,0.504,-3.7769999999999997,5.734
"Benzene, 1-methoxy-4(1E)-1-propenyl-",4180-23-8,COc1ccc(\C=C\C)cc1,C/C=C/c1ccc(OC)cc1,3.318,-3.157,3.4530000000000003,-4.127,4.803
"Thiourea, S,S-dioxide",4189-44-0,NC(N)=[S](=O)=O,NC(N)=S(=O)=O,-0.583,0.943,-2.545,-16.195,-0.244
"Benzenesulfonic acid, 2,2'-(1,2-ethenediyl)bis[5-[[4-[bis(2-hydroxyethyl)amino]-6-(phenylamino)-1,3,5-triazin-2-yl]amino]-, disodium salt",4193-55-9,[Na+].[Na+].OCCN(CCO)c1nc(Nc2ccccc2)nc(Nc3ccc(\C=C\c4ccc(Nc5nc(Nc6ccccc6)nc(n5)N(CCO)CCO)cc4[S]([O-])(=O)=O)c(c3)[S]([O-])(=O)=O)n1,O=S(=O)([O-])c1cc(Nc2nc(Nc3ccccc3)nc(N(CCO)CCO)n2)ccc1/C=C/c1ccc(Nc2nc(Nc3ccccc3)nc(N(CCO)CCO)n2)cc1S(=O)(=O)[O-].[Na+].[Na+],3.196,-4.063,3.3480000000000003,-12.372,3.483
"Acrylamide, N-(1,1,3,3-tetramethylbutyl)-",3/4/4223,CC(C)(C)CC(C)(C)NC(=O)C=C,C=CC(=O)NC(C)(C)CC(C)(C)C,2.93,-3.0610000000000004,2.781,-5.372000000000001,8.023
"Silanetriol, methyl-, triacetate",4253-34-3,CC(O)=O.CC(O)=O.CC(O)=O.C[Si](O)(O)O,CC(=O)O.CC(=O)O.CC(=O)O.C[Si](O)(O)O,-4.8580000000000005,1.128,-1.479,-10.409,6.292
"Zinc, dithiophosphate bis(2-ethylhexyl)-",4259-15-8,CCCCC(CC)C[Zn]CC(CC)CCCC.O[P](O)(S)=S,CCCCC(CC)C[Zn]CC(CC)CCCC.OP(O)(=S)S,2.879,-2.778,3.323,-3.945,3.645
"Phenol, 4-(1-methylethenyl)-",4286-23-1,CC(=C)c1ccc(O)cc1,C=C(C)c1ccc(O)cc1,2.4130000000000003,-2.904,2.834,-6.656000000000001,9.124
"1-Propanaminium, N-(carboxymethyl)-N,N-dimethyl-3-[(1-oxododecyl)amino]-",10/8/4292,CCCCCCCCCCCC(=O)NCCC[N+](C)(C)CC(O)=O,CCCCCCCCCCCC(=O)NCCC[N+](C)(C)CC(=O)O,0.223,-3.5460000000000003,-0.446,-6.202999999999999,4.141
"Glycine, N-methyl-, monosodium salt",4316-73-8,[Na+].CNCC([O-])=O,CNCC(=O)[O-].[Na+],-1.402,-0.287,-0.875,-8.419,6.356
"Disilane, 1,2-dichloro-1,1,2,2-tetramethyl-",4342-61-4,C[Si](C)(Cl)[Si](C)(C)Cl,C[Si](C)(Cl)[Si](C)(C)Cl,1.205,-3.116,2.82,-0.941,14.163
"Nonane, 2,2,4,4,6,8,8-heptamethyl-",4/9/4390,CC(CC(C)(C)C)CC(C)(C)CC(C)(C)C,CC(CC(C)(C)C)CC(C)(C)CC(C)(C)C,5.3870000000000005,-4.1819999999999995,6.52,1.906,9.626
"Benzenesulfonic acid, 2,2'-(1,2-ethenediyl)bis[5-[[4-[bis(2-hydroxyethyl)amino]-6-(phenylamino)-1,3,5-triazin-2-yl]amino]-",4404-43-7,OCCN(CCO)c1nc(Nc2ccccc2)nc(Nc3ccc(C=Cc4ccc(Nc5nc(Nc6ccccc6)nc(n5)N(CCO)CCO)cc4[S](O)(=O)=O)c(c3)[S](O)(=O)=O)n1,O=S(=O)(O)c1cc(Nc2nc(Nc3ccccc3)nc(N(CCO)CCO)n2)ccc1C=Cc1ccc(Nc2nc(Nc3ccccc3)nc(N(CCO)CCO)n2)cc1S(=O)(=O)O,2.447,-3.799,0.662,-13.328,1.87
"1-Propanethiol, 3-(trimethoxysilyl)-",4420-74-0,CO[Si](CCCS)(OC)OC,CO[Si](CCCS)(OC)OC,-0.067,-1.851,0.172,-6.047000000000001,8.849
"Butanamide, N-(4-chloro-2,5-dimethoxyphenyl)-3-oxo-",4433-79-8,COc1cc(NC(=O)CC(C)=O)c(OC)cc1Cl,COc1cc(NC(=O)CC(C)=O)c(OC)cc1Cl,1.858,-3.032,1.497,-9.687000000000001,9.202
3-Methoxybutyl acetate,4435-53-4,COC(C)CCOC(C)=O,COC(C)CCOC(C)=O,1.188,-1.3630000000000002,0.536,-3.9739999999999998,13.068
"Benzene, octadecyl-",7/2/4445,CCCCCCCCCCCCCCCCCCc1ccccc1,CCCCCCCCCCCCCCCCCCc1ccccc1,4.923,-6.124,10.157,-0.5720000000000001,6.989
"2H-Pyran, 3,4-dihydro-2-methoxy-",5/1/4454,COC1CCC=CO1,COC1CCC=CO1,0.7929999999999999,-0.863,1.213,-3.202,10.001
"1-Octanamine, N-methyl-N-octyl-",4455-26-9,CCCCCCCCN(C)CCCCCCCC,CCCCCCCCN(C)CCCCCCCC,3.2460000000000004,-4.626,6.353,-2.0069999999999997,9.922
"1,5-Pentanediol, 3-methyl-",4457-71-0,CC(CCO)CCO,CC(CCO)CCO,0.042,-0.7020000000000001,-0.14400000000000002,-6.499,12.111
"Methanol, methoxy-",4461-52-3,COCO,COCO,-1.364,0.8320000000000001,-0.902,-7.414,18.762
"Butanenitrile, 2-amino-2-methyl-",4475-95-0,CCC(C)(N)C#N,CCC(C)(N)C#N,-2.445,-1.156,0.358,-7.931,5.988
"Disilane, 1,1,2,2-tetrachloro-1,2-dimethyl-",4518-98-3,C[Si](Cl)(Cl)[Si](C)(Cl)Cl,C[Si](Cl)(Cl)[Si](C)(Cl)Cl,3.504,-3.6239999999999997,3.2060000000000004,-1.215,8.792
"Glutaronitrile, 2-methyl-",4553-62-2,CC(CCC#N)C#N,CC(C#N)CCC#N,-0.984,-1.278,0.079,-5.704,20.244
Lactulose,4618-18-2,OC[C@H]1O[C@@H](O[C@@H]2[C@@H](CO)O[C@](O)(CO)[C@H]2O)[C@H](O)[C@@H](O)[C@H]1O,OC[C@H]1O[C@](O)(CO)[C@@H](O)[C@@H]1O[C@@H]1O[C@H](CO)[C@H](O)[C@H](O)[C@H]1O,-1.618,0.223,-3.928,-21.462,6.284
3-Pentenenitrile,4635-87-4,CC=CCC#N,CC=CCC#N,0.506,-1.202,0.78,-3.943,13.105
"2-Propanol, 1-chloro-3-(2-propenyloxy)-",3/3/4638,OC(CCl)COCC=C,C=CCOCC(O)CCl,0.805,-0.848,0.433,-8.026,12.55
"1,1'-Dimethyl-4,4'-bipyridinium",4685-14-7,C[n+]1ccc(cc1)c2cc[n+](C)cc2,C[n+]1ccc(-c2cc[n+](C)cc2)cc1,-1.034,-3.6010000000000004,-4.685,-5.566,5.019
"1,3,5-Triazine-1,3,5(2H,4H,6H)-triethanol",4/4/4719,OCCN1CN(CCO)CN(CCO)C1,OCCN1CN(CCO)CN(CCO)C1,-1.961,-0.384,-1.756,-13.337,8.35
"Propionic acid, 2,2-bis(hydroxymethyl)-",3/7/4767,CC(CO)(CO)C(O)=O,CC(CO)(CO)C(=O)O,-0.964,-0.267,-1.155,-14.318,4.779
"L-Glutamic acid, N-[(phenylmethoxy)carbonyl]-, 1-ethyl ester, compd. with N-cyclohexylcyclohexanamine (1:1)",4779-32-2,CCOC(=O)[C@H](CCC(O)=O)NC(=O)OCc1ccccc1.C2CCC(CC2)NC3CCCCC3,C1CCC(NC2CCCCC2)CC1.CCOC(=O)[C@H](CCC(=O)O)NC(=O)OCc1ccccc1,0.018000000000000002,-3.1239999999999997,2.5660000000000003,-7.42,8.161
"Phenol, 2-[(2-methyl-2-propenyl)oxy]-",4790-71-0,CC(=C)COc1ccccc1O,C=C(C)COc1ccccc1O,3.114,-3.069,2.4730000000000003,-6.234,8.867
Pentaethylene glycol,4792-15-8,OCCOCCOCCOCCOCCO,OCCOCCOCCOCCOCCO,-0.282,-0.5329999999999999,-1.856,-8.874,14.309
"Hexadecane, 1-chloro-",3/1/4860,CCCCCCCCCCCCCCCCCl,CCCCCCCCCCCCCCCCCl,5.619,-5.532,8.762,-0.048,8.546
"5-Carboxamide, 4-methyloxazole-",4866-00-6,Cc1ncoc1C(N)=O,Cc1ncoc1C(N)=O,-0.08900000000000001,-0.75,-0.393,-12.436,11.392
"1,5,9-Cyclododecatriene",4904-61-4,C1CC=CCCC=CCCC=C1,C1=CCCC=CCCC=CCC1,2.495,-1.8530000000000002,4.046,0.361,2.007
"2-Pinanol, cis-",4948-28-1,CC1(C)[C@H]2CCC(C)(O)[C@@H]1C2,CC1(O)CC[C@H]2C[C@@H]1C2(C)C,1.464,-3.1189999999999998,2.846,-4.739,9.792
"2-Pinanol, trans-",4948-29-2,CC1(C)[C@@H]2CCC(C)(O)[C@@H]1C2,CC1(O)CC[C@@H]2C[C@@H]1C2(C)C,1.385,-2.978,2.7030000000000003,-4.388,9.91
"2-Benzothiazolesulfenamide, N,N-dicyclohexyl-",4979-32-2,C1CCC(CC1)N(Sc2sc3ccccc3n2)C4CCCCC4,c1ccc2sc(SN(C3CCCCC3)C3CCCCC3)nc2c1,4.412,-5.569,5.157,-5.55,5.652
"2-Propenoic acid, 2,2-bis[[(1-oxo-2-propenyl)oxy]methyl]-1,3-propanediyl ester",4986-89-4,C=CC(=O)OCC(COC(=O)C=C)(COC(=O)C=C)COC(=O)C=C,C=CC(=O)OCC(COC(=O)C=C)(COC(=O)C=C)COC(=O)C=C,2.0580000000000003,-3.875,1.894,-7.582999999999999,6.888
"Ethanaminium, N,N,N-trimethyl-2-[(2-methyl-1-oxo-2-propenyl)oxy]-, chloride",5039-78-1,[Cl-].CC(=C)C(=O)OCC[N+](C)(C)C,C=C(C)C(=O)OCC[N+](C)(C)C.[Cl-],-0.737,-2.457,-2.055,-4.645,9.079
"Glycine, N,N-bis(carboxymethyl)-, trisodium salt",5064-31-3,[Na+].[Na+].[Na+].[O-]C(=O)CN(CC([O-])=O)CC([O-])=O,O=C([O-])CN(CC(=O)[O-])CC(=O)[O-].[Na+].[Na+].[Na+],-0.948,-1.074,-0.889,-9.676,2.772
"Silane, (3-chloropropyl)triethoxy-",5089-70-3,CCO[Si](CCCCl)(OCC)OCC,CCO[Si](CCCCl)(OCC)OCC,3.4410000000000003,-3.113,1.855,-5.1979999999999995,14.734
Pigment Yellow 13,5102-83-0,CC(=O)C(N=Nc1ccc(cc1Cl)c2ccc(N=NC(C(C)=O)C(=O)Nc3ccc(C)cc3C)c(Cl)c2)C(=O)Nc4ccc(C)cc4C,CC(=O)C(N=Nc1ccc(-c2ccc(N=NC(C(C)=O)C(=O)Nc3ccc(C)cc3C)c(Cl)c2)cc1Cl)C(=O)Nc1ccc(C)cc1C,3.815,-4.802,6.2010000000000005,-10.705,3.517
"6-Bromo-2-naphthyl, methyl ether",5111-65-9,COc1ccc2cc(Br)ccc2c1,COc1ccc2cc(Br)ccc2c1,4.205,-4.461,4.091,-4.735,3.407
Sodium 3-diethylaminobenzenesulfonate,5123-63-7,[Na+].CCN(CC)c1cccc(c1)[S]([O-])(=O)=O,CCN(CC)c1cccc(S(=O)(=O)[O-])c1.[Na+],2.204,-2.79,2.269,-8.052999999999999,5.104
"Cyclohexane, 1,1'-methylenebis[4-isocyanato-",5124-30-1,O=C=NC1CCC(CC1)CC2CCC(CC2)N=C=O,O=C=NC1CCC(CC2CCC(N=C=O)CC2)CC1,2.6260000000000003,-2.969,3.482,-4.19,4.049
"2-Propanol, 1-butoxy-",5131-66-8,CCCCOCC(C)O,CCCCOCC(C)O,1.117,-0.9620000000000001,1.1740000000000002,-6.063,13.399
"3,7-Dimethylocta-2,6-dienenitrile",5146-66-7,CC(C)=CCCC(C)=CC#N,CC(C)=CCCC(C)=CC#N,3.427,-2.7460000000000004,3.47,-3.319,5.802
"Pigment Red 53, barium salt (2:1)",2/1/5160,[Ba++].Cc1cc(N\N=C\2C(=O)C=Cc3ccccc23)c(cc1Cl)[S]([O-])(=O)=O.Cc4cc(N\N=C\5C(=O)C=Cc6ccccc56)c(cc4Cl)[S]([O-])(=O)=O,Cc1cc(N/N=C2\C(=O)C=Cc3ccccc32)c(S(=O)(=O)[O-])cc1Cl.Cc1cc(N/N=C2\C(=O)C=Cc3ccccc32)c(S(=O)(=O)[O-])cc1Cl.[Ba+2],3.527,-3.6639999999999997,3.852,-10.370999999999999,8.092
"1-Propanesulfonic acid, 2-acrylamido-2-methyl",5165-97-9,[Na+].CC(C)(C[S]([O-])(=O)=O)NC(=O)C=C,C=CC(=O)NC(C)(C)CS(=O)(=O)[O-].[Na+],-0.084,-1.3430000000000002,0.3,-9.402000000000001,5.698
"Methanethiol, sodium salt",7/8/5188,[Na+].C[S-],C[S-].[Na+],2.613,-1.5090000000000001,1.571,-1.705,2.394
"2-Propenamide, N-[3-(dimethylamino)propyl]-2-methyl-",5205-93-6,CN(C)CCCNC(=O)C(C)=C,C=C(C)C(=O)NCCCN(C)C,-1.636,-1.7590000000000001,0.059,-9.508,8.896
"1,4-Pentadien-3-ol, 3-methyl-1-(2,6,6-trimethylcyclohexen-1-yl)-",5208-93-5,CC1=C(C=CC(C)(O)C=C)C(C)(C)CCC1,C=CC(C)(O)C=CC1=C(C)CCCC1(C)C,3.773,-3.562,4.367,-4.9719999999999995,5.751
"Benzene, 1-chloro-4-(trichloromethyl)-",5216-25-1,Clc1ccc(cc1)C(Cl)(Cl)Cl,Clc1ccc(C(Cl)(Cl)Cl)cc1,4.891,-4.814,4.084,-1.712,12.359
Carboxin,5234-68-4,CC1=C(SCCO1)C(=O)Nc2ccccc2,CC1=C(C(=O)Nc2ccccc2)SCCO1,1.828,-3.053,1.833,-8.478,6.858
C.I.Pigment Red 57:1,4/9/5281,[Ca++].Cc1ccc(N\N=C\2C(=O)C(=Cc3ccccc23)C([O-])=O)c(c1)[S]([O-])(=O)=O,Cc1ccc(N/N=C2\C(=O)C(C(=O)[O-])=Cc3ccccc32)c(S(=O)(=O)[O-])c1.[Ca+2],2.633,-3.4789999999999996,3.285,-10.48,8.776
"Silane, trichlorooctyl-",5283-66-9,[SiH3]CCCCCCCC(Cl)(Cl)Cl,[SiH3]CCCCCCCC(Cl)(Cl)Cl,4.529,-4.502,5.519,-0.9740000000000001,11.121
"Benzenamine, 4,4'-methylenebis[N-(1-methylpropyl)-",5285-60-9,CCC(C)Nc1ccc(Cc2ccc(NC(C)CC)cc2)cc1,CCC(C)Nc1ccc(Cc2ccc(NC(C)CC)cc2)cc1,3.513,-4.91,5.737,-6.175,6.337
(2-Chloro-2-oxo-1-phenylethyl)ammonium chloride,5321-31-3,[Cl-].[NH3+]C(C(Cl)=O)c1ccccc1,[Cl-].[NH3+]C(C(=O)Cl)c1ccccc1,1.144,-2.5580000000000003,1.278,-5.903,3.216
"1-Octanesulfonic acid, sodium salt",5324-84-5,[Na+].CCCCCCCC[S]([O-])(=O)=O,CCCCCCCCS(=O)(=O)[O-].[Na+],3.773,-2.227,2.55,-4.582,6.079
"Hydrazine, 2,4,6-trichlorophenyl-",12/4/5329,NNc1c(Cl)cc(Cl)cc1Cl,NNc1c(Cl)cc(Cl)cc1Cl,1.262,-3.986,2.857,-8.25,6.031
Sulfamic acid,5329-14-6,N[S](O)(=O)=O,NS(=O)(=O)O,-0.026,1.9140000000000001,-5.228,-14.718,5.84
"Propylamine, 3-methoxy-",5332-73-0,COCCCN,COCCCN,-3.307,-0.612,-0.902,-6.414,9.866
"1-Dodecanol, 2-octyl-",5333-42-6,CCCCCCCCCCC(CO)CCCCCCCC,CCCCCCCCCCC(CO)CCCCCCCC,4.998,-5.082,7.832999999999998,-1.4769999999999999,6.491
"Pentane-1,2-diol",5343-92-0,CCCC(O)CO,CCCC(O)CO,-0.564,-0.268,0.107,-9.499,10.871
"Ethanone, 1-[4-(1-methylethenyl)phenyl]-",4/6/5359,CC(=C)c1ccc(cc1)C(C)=O,C=C(C)c1ccc(C(C)=O)cc1,2.495,-3.1439999999999997,2.959,-5.428,11.208
Citral,5392-40-5,CC(C)=CCCC(C)=CC=O,CC(C)=CCCC(C)=CC=O,2.887,-2.92,3.618,-3.4,6.208
"4,7-Dihydro-2-isopropyl-1,3-dioxepin",5417-35-6,CC(C)C1OCC=CCO1,CC(C)C1OCC=CCO1,1.619,-1.0979999999999999,2.158,-3.975,4.908
"Boric acid, tris(1-methylethyl) ester",5419-55-6,CC(C)OB(OC(C)C)OC(C)C,CC(C)OB(OC(C)C)OC(C)C,4.4860000000000015,-2.323,2.6180000000000003,-4.367,14.655
"Acetic acid, mercapto-, monoammonium salt",5421-46-5,[NH4+].[O-]C(=O)CS,O=C([O-])CS.[NH4+],-1.132,-0.23600000000000002,0.282,-7.568,9.985
"Hexanal, 3,5,5-trimethyl-",5435-64-3,CC(CC=O)CC(C)(C)C,CC(CC=O)CC(C)(C)C,4.253,-2.7880000000000003,3.419,-0.6609999999999999,10.103
"Benzoic acid, 2-ethylhexyl ester",5444-75-7,CCCCC(CC)COC(=O)c1ccccc1,CCCCC(CC)COC(=O)c1ccccc1,4.8660000000000005,-4.8069999999999995,5.747000000000001,-2.908,4.27
"Sodium 4-amino-5-hydroxynaphthalene-2,7-disulphonate",9/3/5460,[Na+].[Na+].Nc1cc(cc2cc(cc(O)c12)[S]([O-])(=O)=O)[S]([O-])(=O)=O,Nc1cc(S(=O)(=O)[O-])cc2cc(S(=O)(=O)[O-])cc(O)c12.[Na+].[Na+],0.777,-2.396,1.536,-11.962,4.374
"2-Propenoic acid, 3-(4-methoxyphenyl)-, 2-ethylhexyl ester",5466-77-3,CCCCC(CC)COC(=O)C=Cc1ccc(OC)cc1,CCCCC(CC)COC(=O)C=Cc1ccc(OC)cc1,4.3889999999999985,-4.556,5.655,-3.918,5.393
"Butanamide, 2,2'-[(3,3'-dichloro[1,1'-biphenyl]-4,4'-diyl)bis(azo)]bis[N-(2-methylphenyl)-3-oxo-",5468-75-7,CC(=O)C(N=Nc1ccc(cc1Cl)c2ccc(N=NC(C(C)=O)C(=O)Nc3ccccc3C)c(Cl)c2)C(=O)Nc4ccccc4C,CC(=O)C(N=Nc1ccc(-c2ccc(N=NC(C(C)=O)C(=O)Nc3ccccc3C)c(Cl)c2)cc1Cl)C(=O)Nc1ccccc1C,3.524,-4.614,5.737,-10.92,3.075
"Hexadecanamide, N,N'-1,2-ethanediylbis-",5518-18-3,CCCCCCCCCCCCCCCC(=O)NCCNC(=O)CCCCCCCCCCCCCCC,CCCCCCCCCCCCCCCC(=O)NCCNC(=O)CCCCCCCCCCCCCCC,4.785,-5.218999999999999,8.047,-4.27,8.086
"2,9-dimethylanthra[2,1,9-def:6,5,10-d'e'f']diisoquinoline-1,3,8,10(2H,9H)-tetrone",5521-31-3,CN1C(=O)c2ccc3c4ccc5C(=O)N(C)C(=O)c6ccc(c7ccc(C1=O)c2c37)c4c56,Cn1c(=O)c2ccc3c4ccc5c(=O)n(C)c(=O)c6ccc(c7ccc(c1=O)c2c37)c4c56,3.424,-5.231,3.774,-12.383,9.293
5'-Guanylic acid disodium salt,12/9/5550,[Na].NC1=NC(=O)c2ncn(C3OC(CO[P](O)(O)=O)C(O)C3O)c2N1,Nc1nc(=O)c2ncn(C3OC(COP(=O)(O)O)C(O)C3O)c2[nH]1.[Na],-0.21,-0.54,-2.577,-18.101,4.314
"Butanamide, 2,2'-[(3,3'-dichloro[1,1'-biphenyl]-4,4'-diyl)bis(azo)]bis[N-(4-chloro-2,5-dimethoxyphenyl)-3-oxo-",5567-15-7,COc1cc(NC(=O)C(N=Nc2ccc(cc2Cl)c3ccc(N=NC(C(C)=O)C(=O)Nc4cc(OC)c(Cl)cc4OC)c(Cl)c3)C(C)=O)c(OC)cc1Cl,COc1cc(NC(=O)C(N=Nc2ccc(-c3ccc(N=NC(C(C)=O)C(=O)Nc4cc(OC)c(Cl)cc4OC)c(Cl)c3)cc2Cl)C(C)=O)c(OC)cc1Cl,3.5210000000000004,-4.815,5.579,-10.716,3.404
"1-Butanol, titanium(4+) salt",5593-70-4,[Ti+4].CCCC[O-].CCCC[O-].CCCC[O-].CCCC[O-],CCCC[O-].CCCC[O-].CCCC[O-].CCCC[O-].[Ti+4],3.111,-1.5330000000000001,1.933,-1.656,12.371
"O,O-Dimethyl O-3,5,6-trichloro-2-pyridyl phosphorothioate",5598-13-0,CO[P](=S)(OC)Oc1nc(Cl)c(Cl)cc1Cl,COP(=S)(OC)Oc1nc(Cl)c(Cl)cc1Cl,4.382,-4.709,4.175,-5.845,1.14
"1-Tetradecanol, 3,6,9,12-tetraoxa-",5650-20-4,CCOCCOCCOCCOCCO,CCOCCOCCOCCOCCO,0.669,-0.7709999999999999,-1.047,-7.614,14.87
"1,1'-Biphenyl, 4-ethyl-",5707-44-8,CCc1ccc(cc1)c2ccccc2,CCc1ccc(-c2ccccc2)cc1,4.0760000000000005,-4.4110000000000005,5.355,-3.0180000000000002,4.497
"Thiosulfuric acid (H2S2O3), S,S'-1,6-hexanediyl ester, disodium salt",5719-73-3,[Na+].[Na+].[O-][S](=O)(=O)SCCCCCCS[S]([O-])(=O)=O,O=S(=O)([O-])SCCCCCCSS(=O)(=O)[O-].[Na+].[Na+],3.37,-2.158,3.088,-5.926,3.293
"Acetonitrile, 2,2',2'',2'''-(1,2-ethanediyldinitrilo)tetrakis-",5766-67-6,N#CCN(CCN(CC#N)CC#N)CC#N,N#CCN(CC#N)CCN(CC#N)CC#N,-0.809,-1.3619999999999999,-0.245,-10.914000000000001,0.093
"Benzoic acid, 2-[4-(diethylamino)-2-hydroxybenzoyl]-",5809-23-4,CCN(CC)c1ccc(c(O)c1)C(=O)c2ccccc2C(O)=O,CCN(CC)c1ccc(C(=O)c2ccccc2C(=O)O)c(O)c1,0.472,-4.4030000000000005,3.742,-10.158,5.747
"Phosphorodithioic acid, O,O-bis(2-ethylhexyl) ester",5810-88-8,CCCCC(CC)CO[P]([S-])(=S)OCC(CC)CCCC,CCCCC(CC)COP(=S)([S-])OCC(CC)CCCC,5.435,-4.91,7.492000000000001,-2.4330000000000003,4.221
"Quino[2,3-b]acridine-7,14-dione, 5,6,12,13-tetrahydro-",5862-38-4,O=C1C2=C(CC3=C(C2)Nc4ccccc4C3=O)Nc5ccccc15,O=c1c2c([nH]c3ccccc13)Cc1c([nH]c3ccccc3c1=O)C2,2.644,-3.609,2.315,-12.015,6.735
"2,4'-Diphenyl methane diisocyanate",5873-54-1,O=C=Nc1ccc(Cc2ccccc2N=C=O)cc1,O=C=Nc1ccc(Cc2ccccc2N=C=O)cc1,1.891,-3.529,3.919,-7.971,2.672
"2-Propenoic acid, (1R,2R,4R)-1,7,7-trimethylbicyclo[2.2.1]hept-2-ylester, rel-",5888-33-5,CC1(C)[C@H]2CC[C@]1(C)C(C2)OC(=O)C=C,C=CC(=O)OC1C[C@@H]2CC[C@@]1(C)C2(C)C,3.427,-4.399,4.754,-3.984,5.472
"Citric acid, monohydrate",5949-29-1,O.OC(=O)CC(O)(CC(O)=O)C(O)=O,O.O=C(O)CC(O)(CC(=O)O)C(=O)O,-5.2189999999999985,-0.129,-1.5119999999999998,-14.062000000000001,3.562
"Glycine, N,N'-1,2-ethanediylbis[N-(carboxymethyl)-, tetrapotassium salt",5964-35-2,[K+].[K+].[K+].[K+].[O-]C(=O)CN(CCN(CC([O-])=O)CC([O-])=O)CC([O-])=O,O=C([O-])CN(CCN(CC(=O)[O-])CC(=O)[O-])CC(=O)[O-].[K+].[K+].[K+].[K+],-0.609,-1.557,-0.779,-10.031,6.896
"3,4-dimethylbenzaldehyde",5973-71-7,Cc1ccc(C=O)cc1C,Cc1ccc(C=O)cc1C,3.242,-2.761,2.556,-4.55,3.421
"Cyclohexene, 1-methyl-4-(1-methylethenyl)-, (4R)-",5989-27-5,CC(=C)[C@@H]1CCC(=CC1)C,C=C(C)[C@H]1CC=C(C)CC1,3.827,-2.9810000000000003,4.455,-0.693,8.75
"Glycine, N-(carboxymethyl)-N-(phosphonomethyl)-",5994-61-6,OC(=O)CN(CC(O)=O)C[P](O)(O)=O,O=C(O)CN(CC(=O)O)CP(=O)(O)O,-1.886,0.507,-3.998,-16.215999999999998,4.151
"Glycine, monosodium salt",6000-44-8,[Na+].NCC([O-])=O,NCC(=O)[O-].[Na+],-1.619,-0.157,-1.5630000000000002,-9.182,5.341
"2-Pentanol, 4-methyl-, hydrogen phosphorodithioate",6028-47-3,CC(C)CC(C)O[P](S)(=S)OC(C)CC(C)C,CC(C)CC(C)OP(=S)(S)OC(C)CC(C)C,4.962,-4.248,5.615,-3.903,5.268
"Urea, N,N""-(2-methylpropylidene)bis-",6104-30-9,CC(C)C(NC(N)=O)NC(N)=O,CC(C)C(NC(N)=O)NC(N)=O,-0.547,-0.5529999999999999,-1.052,-15.314,6.14
"Butanedioic acid, disodium salt, hexahydrate",6106-21-4,O.O.O.O.O.O.[Na+].[Na+].[O-]C(=O)CCC([O-])=O,O.O.O.O.O.O.O=C([O-])CCC(=O)[O-].[Na+].[Na+],-0.644,-0.677,0.613,-6.501,5.69
"Acetic acid, sodium salt, trihydrate",6131-90-4,O.O.O.[Na+].CC([O-])=O,CC(=O)[O-].O.O.O.[Na+],-1.055,-0.369,0.634,-5.292000000000001,5.405
"1,2,3-Propanetricarboxylic acid, 2-hydroxy-, trisodium salt, dihydrate",4/3/6132,O.O.[Na+].[Na+].[Na+].OC(CC([O-])=O)(CC([O-])=O)C([O-])=O,O.O.O=C([O-])CC(O)(CC(=O)[O-])C(=O)[O-].[Na+].[Na+].[Na+],-1.3730000000000002,-1.165,0.306,-9.394,3.098
"Methacrylic acid, pentadecyl ester",6140-74-5,CCCCCCCCCCCCCCCOC(=O)C(C)=C,C=C(C)C(=O)OCCCCCCCCCCCCCCC,5.385,-5.226,8.277000000000001,-2.145,7.599
"Benzene, (1-methylethenyl)-, dimer",4/3/6144,CC(=C)c1ccccc1.CC(=C)c2ccccc2,C=C(C)c1ccccc1.C=C(C)c1ccccc1,3.2230000000000003,-3.193,3.397,-1.784,5.995
"Ethanedioic acid, dihydrate",6153-56-6,O.O.OC(=O)C(O)=O,O.O.O=C(O)C(=O)O,-6.0429999999999975,0.45,-0.471,-12.33,4.689
"Benzene, 1,4-dimethyl-2-(1-phenylethyl)",6165-51-1,CC(c1ccccc1)c2cc(C)ccc2C,Cc1ccc(C)c(C(C)c2ccccc2)c1,4.407,-4.78,5.577000000000001,-2.8569999999999998,4.805
"Benzenesulfonic acid, 4-methyl-, monohydrate",6192-52-5,O.Cc1ccc(cc1)[S](O)(=O)=O,Cc1ccc(S(=O)(=O)O)cc1.O,0.8640000000000001,-1.3019999999999998,-1.5730000000000002,-10.324000000000002,-4.46
"Benzene, 1,2-dimethyl-4-(1-phenylethyl)-",6196-95-8,CC(c1ccccc1)c2ccc(C)c(C)c2,Cc1ccc(C(C)c2ccccc2)cc1C,4.401,-4.6960000000000015,5.933,-3.089,4.844
"Sodium 1-amino-4-bromo-9,10-dioxoanthracene-2-sulphonate",6/6/6258,[Na+].Nc1c(cc(Br)c2C(=O)c3ccccc3C(=O)c12)[S]([O-])(=O)=O,Nc1c(S(=O)(=O)[O-])cc(Br)c2c1C(=O)c1ccccc1C2=O.[Na+],1.52,-3.945,3.305,-10.672,5.355
"D-Glucitol, 1-deoxy-1-(methylamino)-",6284-40-8,CNC[C@H](O)[C@@H](O)[C@H](O)[C@H](O)CO,CNC[C@H](O)[C@@H](O)[C@H](O)[C@H](O)CO,-2.7060000000000004,0.359,-3.1180000000000003,-21.079,10.173
"1,4-Cyclohexanedicarboxylic acid, 2,5-dioxo-, dimethyl ester",6289-46-9,COC(=O)C1CC(=O)C(CC1=O)C(=O)OC,COC(=O)C1CC(=O)C(C(=O)OC)CC1=O,-0.442,-0.9590000000000001,-0.344,-8.925,8.452
"Phosphonic acid, (2-chloroethyl)-, bis(2-chloroethyl) ester",6294-34-4,ClCCO[P](=O)(CCCl)OCCCl,O=P(CCCl)(OCCCl)OCCCl,4.573,-2.387,1.394,-8.058,12.263
"Diindolo[3,2-b:3',2'-m]triphenodioxazine, 8,18-dichloro-5,15-diethyl-5,15-dihydro-",6358-30-1,CCn1c2ccccc2c3cc4N=C5C(=C6Oc7cc8n(CC)c9ccccc9c8cc7N=C6C(=C5Oc4cc13)Cl)Cl,CCn1c2ccccc2c2cc3c(cc21)Oc1c(Cl)c2c(c(Cl)c1=N3)Oc1cc3c(cc1N=2)c1ccccc1n3CC,4.102,-5.7829999999999995,7.395,-7.614,5.028
"Butanamide, 2-[(2-methoxy-4-nitrophenyl)azo]-N-(2-methoxyphenyl)-3-oxo-",6358-31-2,COc1ccccc1NC(=O)C(N=Nc2ccc(cc2OC)[N+]([O-])=O)C(C)=O,COc1cc([N+](=O)[O-])ccc1N=NC(C(C)=O)C(=O)Nc1ccccc1OC,1.991,-3.4210000000000003,3.338,-10.617,3.675
"Aniline, 4-chloro-2,5-dimethoxy-",6358-64-1,COc1cc(Cl)c(OC)cc1N,COc1cc(Cl)c(OC)cc1N,2.048,-2.674,2.12,-7.347,4.864
C.I. Pigment Yellow 12,6358-85-6,CC(=O)C(N=Nc1ccc(cc1Cl)c2ccc(N=NC(C(C)=O)C(=O)Nc3ccccc3)c(Cl)c2)C(=O)Nc4ccccc4,CC(=O)C(N=Nc1ccc(-c2ccc(N=NC(C(C)=O)C(=O)Nc3ccccc3)c(Cl)c2)cc1Cl)C(=O)Nc1ccccc1,3.357,-4.543,5.532,-11.259,3.764
"1,3-Benzenedicarboxylic acid, 5-sulfo-, monosodium salt",6362-79-4,[Na+].OC(=O)c1cc(cc(c1)[S]([O-])(=O)=O)C(O)=O,O=C(O)c1cc(C(=O)O)cc(S(=O)(=O)[O-])c1.[Na+],-1.753,-1.7919999999999998,1.421,-12.078,3.05