chemical_name,cas,smiles,canonical_smiles,log_p,log_s,kow,water-energy,pka
5-(diethylamino)pent-3-yn-2-ol,10575-26-5,CCN(CC)CC#CC(C)O,CCN(CC)CC#CC(C)O,-1.054,-1.4669999999999999,1.294,-6.279,8.069
"Benzenesulfonic acid, 4-hydroxy-, monosodium salt, dihydrate",10580-19-5,Oc1ccc(cc1)[S]([O-])(=O)=O,O=S(=O)([O-])c1ccc(O)cc1,1.531,-1.5619999999999998,1.288,-11.315,9.249
"8-Oxa-3,5-dithia-4-stannatetradecanoic acid, 4,4-dibutyl-10-ethyl-7-oxo-, 2-ethylhexyl ester",10584-98-2,CCCCC(CC)COC(=O)CS[Sn](CCCC)(CCCC)SCC(=O)OCC(CC)CCCC,CCCCC(CC)COC(=O)CS[Sn](CCCC)(CCCC)SCC(=O)OCC(CC)CCCC,5.274,-5.375,6.949,-3.115,6.747
Sodium dichromate,10588-01-9,[Na+].[Na+].[O-][Cr](=O)(=O)O[Cr]([O-])(=O)=O,O=[Cr](=O)([O-])O[Cr](=O)(=O)[O-].[Na+].[Na+],0.192,0.365,0.27,-8.867,-0.246
"1,2-Ethanediamine, N-(1,3-dimethylbutylidene)-N'-[2-[(1,3-dimethylbutylidene)amino]ethyl]-",10595-60-5,CC(C)CC(C)=NCCNCCN=C(C)CC(C)C,CC(CC(C)C)=NCCNCCN=C(C)CC(C)C,2.148,-3.1189999999999998,3.799,-4.949,8.755
"Propanoic acid, 3,3'-thiobis-, ditridecyl ester",10595-72-9,CCCCCCCCCCCCCOC(=O)CCSCCC(=O)OCCCCCCCCCCCCC,CCCCCCCCCCCCCOC(=O)CCSCCC(=O)OCCCCCCCCCCCCC,5.5760000000000005,-5.412000000000001,8.452,-2.5989999999999998,8.723
Carbendazim,10605-21-7,COC(=O)Nc1[nH]c2ccccc2n1,COC(=O)Nc1nc2ccccc2[nH]1,2.015,-2.543,1.181,-12.69,6.746
Zinc bis(tetrapropylenephenyl)-bis(hydrodithiophosphate),11059-65-7,[Zn++].CCCC(C)C(CCC)C(C)Cc1ccc(O[P]([S-])(=S)Oc2ccc(CC(C)C(CCC)C(C)CCC)cc2)cc1.CCCC(C)C(CCC)C(C)Cc3ccc(O[P]([S-])(=S)Oc4ccc(CC(C)C(CCC)C(C)CCC)cc4)cc3,CCCC(C)C(CCC)C(C)Cc1ccc(OP(=S)([S-])Oc2ccc(CC(C)C(CCC)C(C)CCC)cc2)cc1.CCCC(C)C(CCC)C(C)Cc1ccc(OP(=S)([S-])Oc2ccc(CC(C)C(CCC)C(C)CCC)cc2)cc1.[Zn+2],4.936,-6.864,9.295,-1.9040000000000001,7.465
"1,3-Isobenzofurandione, tetrahydromethyl",11070-44-3,CC12CCCC=C1C(=O)OC2=O,CC12CCCC=C1C(=O)OC2=O,2.444,-2.247,1.104,-6.042999999999999,4.729
Isooctene,11071-47-9,CC(C)CCCC=C,C=CCCCC(C)C,4.749,-3.142,4.452,1.6480000000000001,6.771
"Phenol, isooctyl-",11081-15-5,CC(C)CCCCCc1ccccc1O,CC(C)CCCCCc1ccccc1O,4.195,-4.573,5.509,-3.403,9.635
Tridecasodium hypochlorite-tetrakis(phosphate),11084-85-8,[Na+].[Na+].[Na+].[Na+].[Na+].[Na+].[Na+].[Na+].[Na+].[Na+].[Na+].[Na+].[Na+].[O-]Cl.[O-][P]([O-])([O-])=O.[O-][P]([O-])([O-])=O.[O-][P]([O-])([O-])=O.[O-][P]([O-])([O-])=O,O=P([O-])([O-])[O-].O=P([O-])([O-])[O-].O=P([O-])([O-])[O-].O=P([O-])([O-])[O-].[Na+].[Na+].[Na+].[Na+].[Na+].[Na+].[Na+].[Na+].[Na+].[Na+].[Na+].[Na+].[Na+].[O-]Cl,0.946,-0.7559999999999999,0.738,-6.515,-1.725
Ethyl silicate,11099-06-2,CCO[Si]([O-])([O-])[O-],CCO[Si]([O-])([O-])[O-],0.304,-0.985,0.898,-6.186,15.378
"Octadecanoic acid, ester with 1,2,3-propanetriol",11099-07-3,CCCCCCCCCCCCCCCCCC(O)=O.OCC(O)CO,CCCCCCCCCCCCCCCCCC(=O)O.OCC(O)CO,1.544,-2.827,2.642,-6.372000000000001,5.38
Potassium hydroxyoctaoxodizincatedichromate(1-),11103-86-9,[OH-].[K+].[Zn++].[Zn++].[O-][Cr]([O-])(=O)=O.[O-][Cr]([O-])(=O)=O,O=[Cr](=O)([O-])[O-].O=[Cr](=O)([O-])[O-].[K+].[OH-].[Zn+2].[Zn+2],0.36,0.11699999999999999,0.35700000000000004,-7.256,12.395
Aluminium calcium oxide,11104-48-6,[O--].[O--].[O--].[O--].[O--].[Al+3].[Al+3].[Ca++].[Ca++],[Al+3].[Al+3].[Ca+2].[Ca+2].[O-2].[O-2].[O-2].[O-2].[O-2],1.422,-1.5290000000000001,1.837,-4.702,3.406
Ammonium wolframate,11120-25-5,[NH4+].[NH4+].[O-][W]([O-])(=O)=O,O=[W](=O)([O-])[O-].[NH4+].[NH4+],-0.299,0.18899999999999997,-0.136,-5.956,14.118
"Sodium perborate, hydrate",11138-47-9,O.O.O.O.[Na].OOB=O,O.O.O.O.O=BOO.[Na],-0.546,0.086,0.935,-7.359,6.166
"Decanoic acid, ester with 2-ethyl-2-(hydroxymethyl)-1,3-propanedioloctanoate",11138-60-6,CCCCCCCCCC(O)=O.CCCCCCCC(O)=O.CCC(CO)(CO)CO,CCC(CO)(CO)CO.CCCCCCCC(=O)O.CCCCCCCCCC(=O)O,0.879,-1.819,1.345,-7.2170000000000005,6.108
Zinc naphthenate,12001-85-3,[Zn++].CCC1CCC(CCC([O-])=O)C1.CCC2CCC(CCC([O-])=O)C2,CCC1CCC(CCC(=O)[O-])C1.CCC1CCC(CCC(=O)[O-])C1.[Zn+2],4.397,-3.142,4.049,-1.558,8.976
Dialuminium strontium tetraoxide,12004-37-4,[O--].[O--].[O--].[O--].[O--].[Al+3].[Al+3].[Sr++].[Sr++],[Al+3].[Al+3].[O-2].[O-2].[O-2].[O-2].[O-2].[Sr+2].[Sr+2],1.362,-1.537,1.709,-4.7219999999999995,3.337
Calcium tin trioxide,12013-46-6,[Ca++].[O-][Sn]([O-])=O,O=[Sn]([O-])[O-].[Ca+2],-1.514,-0.34700000000000003,0.805,-4.6610000000000005,15.005
Iron disilicide,12022-99-0,[SiH2]=[Fe]=[SiH2],[SiH2]=[Fe]=[SiH2],-1.893,-0.353,-0.021,-6.864,5.248
"Iron, compound with titanium (2:1)",12023-40-4,[Ti].[Fe].[Fe],[Fe].[Fe].[Ti],1.645,-1.334,2.298,-3.265,7.481
Manganese silicide,12032-85-8,[SiH2]=[Mn]=[SiH2],[SiH2]=[Mn]=[SiH2],-1.367,-0.7809999999999999,0.619,-5.641,6.839
Silicon nitride,12033-89-5,N12[Si]34N5[Si]16N3[Si]25N46,N12[Si]34N5[Si]16N3[Si]25N46,-8.492,-4.444,-24.05,-43.211999999999996,-48.286
Disodium tetrasulphide,12034-39-8,[Na+].[Na+].[S-]SS[S-],[Na+].[Na+].[S-]SS[S-],2.181,-2.247,2.4930000000000003,-4.16,1.375
Dialuminium chloride pentahydroxide,12042-91-0,[OH-].[OH-].[OH-].[OH-].[OH-].[Al+3].[Al+3].[Cl-],[Al+3].[Al+3].[Cl-].[OH-].[OH-].[OH-].[OH-].[OH-],0.74,-1.53,1.415,-3.859,19.342
barium titanium trioxide,12047-27-7,[O--].[O--].[O--].[Ti+4].[Ba++],[Ba+2].[O-2].[O-2].[O-2].[Ti+4],1.4,-1.507,1.793,-4.837,3.469
nickel dihydroxide,12054-48-7,[OH-].[OH-].[Ni++],[Ni+2].[OH-].[OH-],0.454,-1.48,0.973,-3.853,23.328
Lead oxide sulfate(Pb5O4(SO4)),12065-90-6,O.O.O.O.[Pb].[Pb].[Pb].[Pb].[Pb].[O-][S]([O-])(=O)=O,O.O.O.O.O=S(=O)([O-])[O-].[Pb].[Pb].[Pb].[Pb].[Pb],0.634,-0.418,1.423,-5.855,16.23
"Benzenesulfonic acid, methyl-, sodium salt",12068-03-0,[Na+].Cc1ccc(cc1)[S]([O-])(=O)=O,Cc1ccc(S(=O)(=O)[O-])cc1.[Na+],2.173,-2.082,1.77,-7.7860000000000005,3.497
Dichromium iron tetraoxide,12068-77-8,[O--].[O--].[O--].[Cr+3].[Fe+3],[Cr+3].[Fe+3].[O-2].[O-2].[O-2],1.463,-1.538,1.594,-4.346,5.366
Tungsten carbide (WC),12070-12-1,[C-]#[W],[C-]#[W],1.636,-0.894,1.711,-1.41,3.381
"Manganese, tricarbonyl[(1,2,3,4,5-.beta.)-1-methyl-2,4-cyclopentadien-1-yl]",12108-13-3,[Mn].C[c-]1cccc1.[C-]#[O+].[C-]#[O+].[C-]#[O+],C[c-]1cccc1.[C-]#[O+].[C-]#[O+].[C-]#[O+].[Mn],1.269,-1.276,1.188,-1.755,0.349
"Borate (1-), hydroxytriphenyl-, sodium",12113-07-4,[Na+].O[B-](c1ccccc1)(c2ccccc2)c3ccccc3,O[B-](c1ccccc1)(c1ccccc1)c1ccccc1.[Na+],2.7880000000000003,-4.255,3.606,-8.524,1.646
Tetramagnesium di-hydroxy-tricarbonate,12115-66-1,[MgH2].[MgH2].[MgH2].[MgH2].OOC(=O)OC(=O)OC(=O)OO,O=C(OO)OC(=O)OC(=O)OO.[MgH2].[MgH2].[MgH2].[MgH2],-0.5720000000000001,-0.77,-0.7190000000000001,-8.209,6.94
Zineb,12122-67-7,[Zn++].[S-]C(=S)NCCNC([S-])=S,S=C([S-])NCCNC(=S)[S-].[Zn+2],-0.188,-2.316,2.218,-8.79,7.589
Ammonium bromide,12124-97-9,[NH4+].[Br-],[Br-].[NH4+],0.777,-1.571,1.551,-2.307,9.951
Ammonium chloride,12125-02-9,[NH4+].[Cl-],[Cl-].[NH4+],0.5670000000000001,-1.483,1.456,-2.1790000000000003,10.755
Magnesium carbonate hydroxide,12125-28-9,[OH-].[Mg++].OC([O-])=O,O=C([O-])O.[Mg+2].[OH-],-4.129,-0.042,-0.223,-6.707000000000001,5.213
Aluminium silicate,12141-46-7,[Al+3].[Al+3].[Al+3].[Al+3].[O-][Si]([O-])([O-])[O-].[O-][Si]([O-])([O-])[O-].[O-][Si]([O-])([O-])[O-],[Al+3].[Al+3].[Al+3].[Al+3].[O-][Si]([O-])([O-])[O-].[O-][Si]([O-])([O-])[O-].[O-][Si]([O-])([O-])[O-],0.5820000000000001,-0.828,1.012,-6.767,16.565
"pentacalcium hydroxide tris(orthophosphate), with a fluorine content of less than0,005 % by weight on the dry anhydrous product",12167-74-7,[Ca++].[Ca++].[Ca++].[O-][P]([O-])([O-])=O.[O-][P]([O-])([O-])=O,O=P([O-])([O-])[O-].O=P([O-])([O-])[O-].[Ca+2].[Ca+2].[Ca+2],1.681,-0.439,0.938,-7.2410000000000005,11.586
Ilmenite  (FeTiO3),12168-52-4,O.O.O.[Ti].[Fe],O.O.O.[Fe].[Ti],0.726,-0.7879999999999999,1.653,-4.534,12.489
tricalcium silicon pentaoxide,12168-85-3,[Ca++].[Ca++].[O-][Si]([O-])([O-])[O-].O=[Ca],O=[Ca].[Ca+2].[Ca+2].[O-][Si]([O-])([O-])[O-],0.336,-0.639,0.8809999999999999,-6.582000000000001,10.806
Lead oxide sulfate  (Pb4O3(SO4)),12202-17-4,[Pb++].[O-][S]([O-])(=O)=O.O=[Pb].O=[Pb].O=[Pb],O=S(=O)([O-])[O-].O=[Pb].O=[Pb].O=[Pb].[Pb+2],-0.058,0.055999999999999994,-0.093,-6.034,7.234
C.I. Pigment Yellow 100,12225-21-7,[Al+3].OC(=O)C1=NN(C(=O)C1N=Nc2ccc(cc2)[S]([O-])(=O)=O)c3ccc(cc3)[S](O)(=O)=O.OC(=O)C4=NN(C(=O)C4N=Nc5ccc(cc5)[S]([O-])(=O)=O)c6ccc(cc6)[S](O)(=O)=O.OC(=O)C7=NN(C(=O)C7N=Nc8ccc(cc8)[S]([O-])(=O)=O)c9ccc(cc9)[S](O)(=O)=O,O=C(O)C1=NN(c2ccc(S(=O)(=O)O)cc2)C(=O)C1N=Nc1ccc(S(=O)(=O)[O-])cc1.O=C(O)C1=NN(c2ccc(S(=O)(=O)O)cc2)C(=O)C1N=Nc1ccc(S(=O)(=O)[O-])cc1.O=C(O)C1=NN(c2ccc(S(=O)(=O)O)cc2)C(=O)C1N=Nc1ccc(S(=O)(=O)[O-])cc1.[Al+3],-0.338,-2.123,-0.249,-13.61,3.268
Aluminium sodium tetrahydroxide,12251-53-5,[OH-].[OH-].[OH-].[OH-].[Na+].[Al+3],[Al+3].[Na+].[OH-].[OH-].[OH-].[OH-],0.269,-1.4980000000000002,0.879,-4.053,13.126
Chromium hydroxide sulfate (Cr(OH)(SO4)),12336-95-7,[OH-].[Cr+3].[O-][S]([O-])(=O)=O,O=S(=O)([O-])[O-].[Cr+3].[OH-],0.173,-0.066,0.172,-6.385,17.268
Iron chloride sulfateFe(Cl)(SO4),12410-14-9,[Cl].[Fe].[O-][S]([O-])(=O)=O,O=S(=O)([O-])[O-].[Cl].[Fe],0.568,0.039,0.498,-6.3260000000000005,14.884
Maneb,12427-38-2,[Mn++].[S-]C(=S)NCCNC([S-])=S,S=C([S-])NCCNC(=S)[S-].[Mn+2],-0.281,-2.323,2.123,-8.687999999999999,8.668
"Aluminum, trichlorotrimethyldi-",12542-85-7,C[Al](C)Cl.C[Al](Cl)Cl,C[Al](C)Cl.C[Al](Cl)Cl,2.262,-1.193,1.818,-2.031,16.301
Dioxobis(stearato)trilead,12578-12-0,CCCCCCCCCCCCCCCCCC(=O)O[Pb]O[Pb]O[Pb]OC(=O)CCCCCCCCCCCCCCCCC,CCCCCCCCCCCCCCCCCC(=O)O[Pb]O[Pb]O[Pb]OC(=O)CCCCCCCCCCCCCCCCC,5.178,-5.432,9.865,-3.142,7.196
2-Ethylhexyl phosphorate,12645-31-7,CCCCC(CC)CO[P]([O-])([O-])=O,CCCCC(CC)COP(=O)([O-])[O-],4.617,-2.488,4.11,-4.478,12.165
Potassium O-isobutyl dithiocarbonate,13001-46-2,[K+].CC(C)COC([S-])=S,CC(C)COC(=S)[S-].[K+],4.104,-2.812,3.172,-1.307,5.838
Potassium phenylacetate,13005-36-2,[K+].[O-]C(=O)Cc1ccccc1,O=C([O-])Cc1ccccc1.[K+],1.56,-2.291,1.966,-4.955,7.431
ammonium sodium hydrogenorthophosphate,13011-54-6,[NH4+].[Na+].O[P]([O-])([O-])=O,O=P([O-])([O-])O.[NH4+].[Na+],1.405,0.195,-1.426,-9.087,5.645
"Benzonitrile, 4-(acetyloxy)-",13031-41-9,CC(=O)Oc1ccc(cc1)C#N,CC(=O)Oc1ccc(C#N)cc1,1.006,-2.3080000000000003,1.304,-6.749,7.907
Hexamethylene diacrylate,13048-33-4,C=CC(=O)OCCCCCCOC(=O)C=C,C=CC(=O)OCCCCCCOC(=O)C=C,3.3360000000000003,-3.5380000000000003,2.902,-5.226,9.359
"1-Butanol, 2-amino-",13054-87-0,CCC(N)CO,CCC(N)CO,-3.3160000000000003,-0.467,-0.795,-9.441,9.052
[2-(acryloyloxy)ethyl]trimethylammonium methyl sulphate,13106-44-0,CO[S]([O-])(=O)=O.C[N+](C)(C)CCOC(=O)C=C,C=CC(=O)OCC[N+](C)(C)C.COS(=O)(=O)[O-],-1.02,-1.062,-2.202,-5.3389999999999995,8.885
Nickel nitrate,13138-45-9,[Ni++].[O-][N+]([O-])=O.[O-][N+]([O-])=O,O=[N+]([O-])[O-].O=[N+]([O-])[O-].[Ni+2],-1.146,-0.261,0.18600000000000005,-3.352,14.988
Sodium 2-(2-(2-(dodecyloxy)ethoxy)ethoxy)ethyl sulphate,13150-00-0,[Na+].CCCCCCCCCCCCOCCOCCOCCO[S]([O-])(=O)=O,CCCCCCCCCCCCOCCOCCOCCOS(=O)(=O)[O-].[Na+],3.677,-2.835,4.285,-5.206,8.951
magnesium nitrate hexahydrate,13446-18-9,O.O.O.O.O.O.[Mg++].[O-][N+]([O-])=O.[O-][N+]([O-])=O,O.O.O.O.O.O.O=[N+]([O-])[O-].O=[N+]([O-])[O-].[Mg+2],-0.578,-0.37799999999999995,0.72,-4.482,13.804
Barite (Ba(SO4)),13462-86-7,[Ba++].[O-][S]([O-])(=O)=O,O=S(=O)([O-])[O-].[Ba+2],0.264,0.19,0.18600000000000005,-7.018,13.084
Titanium dioxide,13463-67-7,O=[Ti]=O,O=[Ti]=O,-3.962,0.7959999999999999,0.107,-7.629,-1.225
"Butanenitrile, 2,2'-azobis[2-methyl-",13472-08-7,CCC(C)(N=NC(C)(CC)C#N)C#N,CCC(C)(C#N)N=NC(C)(C#N)CC,0.8370000000000001,-2.428,3.284,-6.742000000000001,9.116
Tetrasodium silicate,13472-30-5,[Na+].[Na+].[Na+].[Na+].[O-][Si]([O-])([O-])[O-],[Na+].[Na+].[Na+].[Na+].[O-][Si]([O-])([O-])[O-],0.115,-1.1740000000000002,0.816,-6.209,-3.229
"Nitric acid, nickel(2+) salt, hexahydrate",13478-00-7,O.O.O.O.O.O.[Ni++].[O-][N+]([O-])=O.[O-][N](=O)=O,O.O.O.O.O.O.O=[N+]([O-])[O-].O=[N+]([O-])[O-].[Ni+2],-0.585,-0.37799999999999995,0.677,-4.386,15.488
iron (II) chloride tetrahydrate,13478-10-9,O.O.O.O.[Cl-].[Cl-].[Fe++],O.O.O.O.[Cl-].[Cl-].[Fe+2],1.38,-1.095,1.958,-4.435,13.443
"Silicic acid, disodium salt, nonahydrate",13517-24-3,O.O.O.O.O.O.O.O.O.[Na+].[Na+].[O-][Si]([O-])=O,O.O.O.O.O.O.O.O.O.O=[Si]([O-])[O-].[Na+].[Na+],-0.479,-0.5429999999999999,0.8340000000000001,-5.37,7.433
"Disilane, 1,1,2-trichloro-1,2,2-trimethy",13528-88-6,C[Si](C)(Cl)[Si](C)(Cl)Cl,C[Si](C)(Cl)[Si](C)(Cl)Cl,2.699,-3.3280000000000003,2.986,-1.089,13.986
"2-Butanone, 1-chloro-3,3-dimethyl-",13547-70-1,CC(C)(C)C(=O)CCl,CC(C)(C)C(=O)CCl,3.459,-1.5319999999999998,2.064,-4.175,11.811
"1,4:7,10-Dimethanodibenzo[a,e]cyclooctene, 1,2,3,4,7,8,9,10,13,13,14,14-dodecachloro-1,4,4a,5,6,6a,7,10,10a,11,12,12a-dodecahydro-",13560-89-9,ClC1=C(Cl)C2(Cl)C3CCC4C(CCC3C1(Cl)C2(Cl)Cl)C5(Cl)C(=C(Cl)C4(Cl)C5(Cl)Cl)Cl,ClC1=C(Cl)C2(Cl)C3CCC4C(CCC3C1(Cl)C2(Cl)Cl)C1(Cl)C(Cl)=C(Cl)C4(Cl)C1(Cl)Cl,4.999,-5.35,6.2620000000000005,-0.473,6.422
Phosphonic acid,13598-36-2,O[PH](O)=O,O=[PH](O)O,-1.064,1.916,-3.485,-14.292,3.113
Zinc bis(dihydrogen phosphate),13598-37-3,[Zn++].O[P](O)([O-])=O.O[P](O)([O-])=O,O=P([O-])(O)O.O=P([O-])(O)O.[Zn+2],1.769,1.399,-2.604,-13.728,4.163
"2-Propanol, 1-chloro-, phosphate (3:1)",13674-84-5,CC(O)CCl.CC(O)CCl.CC(O)CCl.O[P](O)(O)=O,CC(O)CCl.CC(O)CCl.CC(O)CCl.O=P(O)(O)O,0.183,0.38799999999999996,-0.59,-9.977,5.591
"2-Propanol, 1,3-dichloro-, phosphate (3:1)",13674-87-8,OC(CCl)CCl.OC(CCl)CCl.OC(CCl)CCl.O[P](O)(O)=O,O=P(O)(O)O.OC(CCl)CCl.OC(CCl)CCl.OC(CCl)CCl,0.56,0.136,-0.405,-10.488,6.472
Phenmedipham,13684-63-4,COC(=O)Nc1cccc(OC(=O)Nc2cccc(C)c2)c1,COC(=O)Nc1cccc(OC(=O)Nc2cccc(C)c2)c1,3.905,-3.8680000000000003,3.143,-10.149,7.473
Titanium bis(sulphate),13693-11-3,[Ti+4].[O-][S]([O-])(=O)=O.[O-][S]([O-])(=O)=O,O=S(=O)([O-])[O-].O=S(=O)([O-])[O-].[Ti+4],0.13,0.434,-0.18600000000000005,-7.002999999999999,14.601
"1,3,5-Triazine, 2,4-dichloro-6-(methylthio)-",13705-05-0,CSc1nc(Cl)nc(Cl)n1,CSc1nc(Cl)nc(Cl)n1,1.332,-2.421,2.282,-5.632999999999999,2.657
zirconium tetranitrate,13746-89-9,[Zr+4].[O-][N+]([O-])=O.[O-][N+]([O-])=O.[O-][N+]([O-])=O.[O-][N+]([O-])=O,O=[N+]([O-])[O-].O=[N+]([O-])[O-].O=[N+]([O-])[O-].O=[N+]([O-])[O-].[Zr+4],-1.26,-0.133,0.113,-3.321,14.618
"Ethanimidothioic acid, N-hydroxy-, methyl ester",13749-94-5,CSC(C)=NO,CSC(C)=NO,-0.38,-0.489,0.8590000000000001,-6.23,7.062
"Morpholine, 4-[(4-morpholinylthio)thioxomethyl]-",13752-51-7,S=C(SN1CCOCC1)N2CCOCC2,S=C(SN1CCOCC1)N1CCOCC1,0.883,-1.4909999999999999,0.716,-9.033999999999999,5.097
Trisodium hexafluoroaluminate,13775-53-6,[F-].[F-].[F-].[F-].[F-].[F-].[Na+].[Na+].[Na+].[Al+3],[Al+3].[F-].[F-].[F-].[F-].[F-].[F-].[Na+].[Na+].[Na+],0.745,-1.995,2.133,-2.7960000000000003,2.203
"Nitrous acid, calcium salt",13780-06-8,[Ca++].[O-]N=O.[O-]N=O,O=N[O-].O=N[O-].[Ca+2],-1.321,-0.023,0.895,-6.149,6.182
Calcium sodium phosphate,13780-17-1,[Na+].[Ca++].[O-][P]([O-])([O-])=O,O=P([O-])([O-])[O-].[Ca+2].[Na+],1.362,-0.5529999999999999,0.841,-7.037999999999999,7.058
"Benzyl alcohol, 3-phenoxy-",13826-35-2,OCc1cccc(Oc2ccccc2)c1,OCc1cccc(Oc2ccccc2)c1,3.218,-3.7939999999999996,3.002,-6.507999999999999,2.964
Pentapotassium triphosphorate,13845-36-8,[K+].[K+].[K+].[K+].[K+].[O-][P]([O-])(=O)O[P]([O-])(=O)O[P]([O-])([O-])=O,O=P([O-])([O-])OP(=O)([O-])OP(=O)([O-])[O-].[K+].[K+].[K+].[K+].[K+],1.608,-1.119,1.007,-9.376,7.082
"Benzenesulfonic acid, 2,2'-(1,2-ethenediyl)bis[5-[[4-[(2-hydroxyethyl)methylamino]-6-(phenylamino)-1,3,5-triazin-2-yl]amino]-, disodiumsalt",13863-31-5,[Na+].[Na+].CN(CCO)c1nc(Nc2ccccc2)nc(Nc3ccc(/C=C/c4ccc(Nc5nc(Nc6ccccc6)nc(n5)N(C)CCO)cc4[S]([O-])(=O)=O)c(c3)[S]([O-])(=O)=O)n1,CN(CCO)c1nc(Nc2ccccc2)nc(Nc2ccc(/C=C/c3ccc(Nc4nc(Nc5ccccc5)nc(N(C)CCO)n4)cc3S(=O)(=O)[O-])c(S(=O)(=O)[O-])c2)n1.[Na+].[Na+],3.362,-4.118,3.986,-12.002,3.534
Disodium disilicate,13870-28-5,[Na+].[Na+].O[Si](O)(O)O[Si](O)([O-])[O-],[Na+].[Na+].[O-][Si]([O-])(O)O[Si](O)(O)O,0.615,0.997,-1.176,-14.335999999999999,7.488
Disodium trisilicon heptaoxide,13870-30-9,[O--].[O--].[O--].[O--].[O--].[O--].[O--].[Na].[Na+].[Si].[Si].[Si],[Na+].[Na].[O-2].[O-2].[O-2].[O-2].[O-2].[O-2].[O-2].[Si].[Si].[Si],0.649,-1.37,1.496,-4.478,3.686
"Butanenitrile, 2-amino-2,3-dimethyl-",13893-53-3,CC(C)C(C)(N)C#N,CC(C)C(C)(N)C#N,-2.116,-1.7109999999999999,0.903,-7.287999999999999,4.875
Aluminium Triphosphorate,13939-25-8,[Al+3].[Al+3].[Al+3].[Al+3].[Al+3].[O-][P]([O-])(=O)O[P]([O-])(=O)O[P]([O-])([O-])=O.[O-][P]([O-])(=O)O[P]([O-])(=O)O[P]([O-])([O-])=O.[O-][P]([O-])(=O)O[P]([O-])(=O)O[P]([O-])([O-])=O,O=P([O-])([O-])OP(=O)([O-])OP(=O)([O-])[O-].O=P([O-])([O-])OP(=O)([O-])OP(=O)([O-])[O-].O=P([O-])([O-])OP(=O)([O-])OP(=O)([O-])[O-].[Al+3].[Al+3].[Al+3].[Al+3].[Al+3],1.903,-0.935,1.21,-10.293,11.032
2-Butanamine,13952-84-6,CCC(C)N,CCC(C)N,-4.396,-1.355,1.054,-3.239,10.254
potassium dicyanoaurate,13967-50-5,[K+].[Au+].[C-]#N.[C-]#N,[Au+].[C-]#N.[C-]#N.[K+],0.07400000000000001,-0.8029999999999999,0.531,-4.162,1.844
Wollastonite(Ca(SiO3)),13983-17-0,[Ca++].[O-][Si]([O-])=O,O=[Si]([O-])[O-].[Ca+2],-1.7990000000000002,-0.397,0.514,-5.053999999999999,14.317
"(Methylimino)diethane-1,2-diyl distearate",13998-76-0,CCCCCCCCCCCCCCCCCC(=O)OCCN(C)CCOC(=O)CCCCCCCCCCCCCCCCC,CCCCCCCCCCCCCCCCCC(=O)OCCN(C)CCOC(=O)CCCCCCCCCCCCCCCCC,5.197,-5.596,9.082,-2.7910000000000004,7.596
Potassium tetrafluoroborate,14075-53-7,[K+].F[B-](F)(F)F,F[B-](F)(F)F.[K+],3.5010000000000003,-1.227,1.548,1.3519999999999999,4.685
"bis(3,5,5-trimethylhexyl) phthalate",14103-61-8,CC(CCOC(=O)c1ccccc1C(=O)OCCC(C)CC(C)(C)C)CC(C)(C)C,CC(CCOC(=O)c1ccccc1C(=O)OCCC(C)CC(C)(C)C)CC(C)(C)C,5.085,-5.635,7.02,-3.005,7.688
Zinc bis(diethyldithiocarbamate),14324-55-1,[Zn++].CCN(CC)C([S-])=S.CCN(CC)C([S-])=S,CCN(CC)C(=S)[S-].CCN(CC)C(=S)[S-].[Zn+2],1.228,-2.4659999999999997,2.793,-4.677,7.918
"Decanamide, N,N-dimethyl-",14433-76-2,CCCCCCCCCC(=O)N(C)C,CCCCCCCCCC(=O)N(C)C,3.377,-3.0010000000000003,3.225,-4.697,6.756
"Nonanoic acid, 2,2-bis[[(1-oxononyl)oxy]methyl]-1,3-propanediyl ester",14450-05-6,CCCCCCCCC(=O)OCC(COC(=O)CCCCCCCC)(COC(=O)CCCCCCCC)COC(=O)CCCCCCCC,CCCCCCCCC(=O)OCC(COC(=O)CCCCCCCC)(COC(=O)CCCCCCCC)COC(=O)CCCCCCCC,5.659,-5.2970000000000015,7.28,-3.719,6.123
Cristobalite,14464-46-1,O=[Si]=O,O=[Si]=O,-5.921,0.73,0.552,-7.551,-0.951
Zirconium tetrahydroxide,14475-63-9,[OH-].[OH-].[OH-].[OH-].[Zr+4],[OH-].[OH-].[OH-].[OH-].[Zr+4],0.364,-1.3419999999999999,0.9,-3.938,24.692
Fluorite(CaF2),14542-23-5,[F-].[F-].[Ca++],[Ca+2].[F-].[F-],1.229,-1.9069999999999998,2.793,-2.861,4.946
Aluminium 1-octate,14624-13-6,[Al+3].CCCCCCCC[O-].CCCCCCCC[O-].CCCCCCCC[O-],CCCCCCCC[O-].CCCCCCCC[O-].CCCCCCCC[O-].[Al+3],4.5139999999999985,-3.245,3.914,-1.092,11.272
Aluminium 1-dodecanate,14624-15-8,[Al+3].CCCCCCCCCCCC([O-])=O.CCCCCCCCCCCC([O-])=O.CCCCCCCCCCCC([O-])=O,CCCCCCCCCCCC(=O)[O-].CCCCCCCCCCCC(=O)[O-].CCCCCCCCCCCC(=O)[O-].[Al+3],4.647,-3.97,6.255,-2.1430000000000002,8.748
Zinc acrylate,14643-87-9,[Zn++].[O-]C(=O)C=C.[O-]C(=O)C=C,C=CC(=O)[O-].C=CC(=O)[O-].[Zn+2],-0.53,-0.649,0.604,-5.608,9.908
Cobalt oleate,14666-94-5,[Co++].CCCCCCCC\C=C/CCCCCCCC([O-])=O.CCCCCCCC\C=C/CCCCCCCC([O-])=O,CCCCCCCC/C=C\CCCCCCCC(=O)[O-].CCCCCCCC/C=C\CCCCCCCC(=O)[O-].[Co+2],4.853,-4.539,7.785,-2.267,7.86
"Octadecanoic acid, compd.with N,N-dimethyl-1-octadecanamine (1:1)",14745-75-6,CCCCCCCCCCCCCCCCCCN(C)C.CCCCCCCCCCCCCCCCCC(O)=O,CCCCCCCCCCCCCCCCCC(=O)O.CCCCCCCCCCCCCCCCCCN(C)C,3.509,-5.003,7.814,-1.9569999999999999,7.753
"Ethanol, 2,2',2""-nitrilotris-, acetate (salt)",14806-72-5,CC(O)=O.OCCN(CCO)CCO,CC(=O)O.OCCN(CCO)CCO,-3.142,0.23199999999999998,-1.474,-10.879000000000001,7.815
Talc(Mg3H2(SiO3)4),14807-96-6,[Mg++].[Mg++].[Mg++].O[Si]([O-])=O.O[Si]([O-])=O.[O-][Si]([O-])=O.[O-][Si]([O-])=O,O=[Si]([O-])O.O=[Si]([O-])O.O=[Si]([O-])[O-].O=[Si]([O-])[O-].[Mg+2].[Mg+2].[Mg+2],-3.597,0.013999999999999999,-0.368,-6.537999999999999,6.875
Quartz,14808-60-7,O=[Si]=O,O=[Si]=O,-5.921,0.73,0.552,-7.551,-0.951
"Aniline, 4-(2,4-dichlorophenoxy)-",14861-17-7,Nc1ccc(Oc2ccc(Cl)cc2Cl)cc1,Nc1ccc(Oc2ccc(Cl)cc2Cl)cc1,3.494,-4.7219999999999995,3.829,-6.347,5.492
beta-Ionone,14901-07-6,CC(=O)/C=C/C1=C(C)CCCC1(C)C,CC(=O)/C=C/C1=C(C)CCCC1(C)C,3.612,-3.28,3.721,-4.3469999999999995,7.789
Zircon,14940-68-2,[Zr+4].[O-][Si]([O-])([O-])[O-],[O-][Si]([O-])([O-])[O-].[Zr+4],0.647,-0.736,0.961,-6.875,17.966