chemical_name,cas,smiles,canonical_smiles,log_p,log_s,kow,water-energy,pka
Trisodium hexafluoroaluminate,15096-52-3,[F-].[F-].[F-].[F-].[F-].[F-].[Na+].[Na+].[Na+].[Al+3],[Al+3].[F-].[F-].[F-].[F-].[F-].[F-].[Na+].[Na+].[Na+],0.745,-1.995,2.133,-2.7960000000000003,2.203
Methyl benzoylformate,15206-55-0,COC(=O)C(=O)c1ccccc1,COC(=O)C(=O)c1ccccc1,1.3730000000000002,-2.525,1.403,-7.62,0.531
"1-Propanesulfonic acid, 2-methyl-2-[(1-oxo-2-propenyl)amino]-",15214-89-8,CC(C)(C[S](O)(=O)=O)NC(=O)C=C,C=CC(=O)NC(C)(C)CS(=O)(=O)O,-0.237,-0.8809999999999999,-2.665,-11.335,4.858
"Nitric acid, ammonium calcium salt",15245-12-2,[NH4+].[Ca++].[O-][N](=O)=O,O=[N+]([O-])[O-].[Ca+2].[NH4+],-1.034,-0.52,0.336,-3.438,9.746
"Tetradecanoic acid, calcium salt",15284-51-2,[Ca++].CCCCCCCCCCCCCC([O-])=O.CCCCCCCCCCCCCC([O-])=O,CCCCCCCCCCCCCC(=O)[O-].CCCCCCCCCCCCCC(=O)[O-].[Ca+2],4.839,-4.386,7.237,-1.975,8.433
"1,5-Pentanediamine, 2-methyl-",15520-10-2,CC(CN)CCCN,CC(CN)CCCN,-3.91,-1.912,-1.404,-6.097,11.298
Chlorotoluron,15545-48-9,CN(C)C(=O)Nc1ccc(C)c(Cl)c1,Cc1ccc(NC(=O)N(C)C)cc1Cl,3.616,-2.782,2.462,-10.375,11.878
Di-n-octyltin bis(ethylhexylthioglycolate),15571-58-1,CCCCCCCC[Sn++]CCCCCCCC.CCCCCCC(S)(CC)C([O-])=O.CCCCCCC(S)(CC)C([O-])=O,CCCCCCC(S)(CC)C(=O)[O-].CCCCCCC(S)(CC)C(=O)[O-].CCCCCCCC[Sn+2]CCCCCCCC,4.62,-4.352,5.651,-3.147,9.88
"2-Propenoic acid, 2-ethyl-2-[[(1-oxo-2-propenyl)oxy]methyl]-1,3-propanediyl",15625-89-5,CCC(COC(=O)C=C)(COC(=O)C=C)COC(=O)C=C,C=CC(=O)OCC(CC)(COC(=O)C=C)COC(=O)C=C,2.677,-3.872,2.438,-6.672000000000001,7.926
"Disodium carbonate, compound with hydrogen peroxide (2:3)",15630-89-4,[Na+].[Na+].[Na+].[Na+].OO.OO.OO.[O-]C([O-])=O.[O-]C([O-])=O,O=C([O-])[O-].O=C([O-])[O-].OO.OO.OO.[Na+].[Na+].[Na+].[Na+],-2.607,0.188,-0.914,-6.744,9.814
"Phosphorous acid, 2-ethylhexyl diphenyl ester",15647-08-2,CCCCC(CC)COP(Oc1ccccc1)Oc2ccccc2,CCCCC(CC)COP(Oc1ccccc1)Oc1ccccc1,4.337,-5.4,5.72,-4.583,4.435
1-Cyanoallyl acetate,15667-63-7,CC(=O)OC(C=C)C#N,C=CC(C#N)OC(C)=O,-0.196,-1.5130000000000001,0.89,-6.534,8.047
Ibuprofen,15687-27-1,CC(C)Cc1ccc(cc1)C(C)C(O)=O,CC(C)Cc1ccc(C(C)C(=O)O)cc1,0.488,-3.7089999999999996,4.026,-6.225,4.447
Sodium feredetate,15708-41-5,[Na+].[Fe+3].[O-]C(=O)CN(CCN(CC([O-])=O)CC([O-])=O)CC([O-])=O,O=C([O-])CN(CCN(CC(=O)[O-])CC(=O)[O-])CC(=O)[O-].[Fe+3].[Na+],-0.713,-1.5290000000000001,-0.7859999999999999,-10.419,7.482
"Phosphonic acid, [[(phosphonomethyl)imino]bis[2,1-ethanediylnitrilobis(methylene)]]tetrakis-",15827-60-8,O[P](O)(=O)CN(CCN(C[P](O)(O)=O)C[P](O)(O)=O)CCN(C[P](O)(O)=O)C[P](O)(O)=O,O=P(O)(O)CN(CCN(CP(=O)(O)O)CP(=O)(O)O)CCN(CP(=O)(O)O)CP(=O)(O)O,1.521,0.425,-4.057,-18.632,6.052
"m-, p-cresol",15831-10-4,Cc1cccc(O)c1,Cc1cccc(O)c1,2.6630000000000003,-2.265,2.018,-6.327000000000001,10.495
"1,3,5-Triazine-1,3,5(2H,4H,6H)-tripropanamine, N,N,N',N',N'',N''-hexamethyl-",15875-13-5,CN(C)CCCN1CN(CCCN(C)C)CN(CCCN(C)C)C1,CN(C)CCCN1CN(CCCN(C)C)CN(CCCN(C)C)C1,-2.639,-1.98,0.79,-9.759,8.971
"Antimony, tris(dipentylcarbamodithioato-.kappa.S,.kappa.S')-, (C6-11)-",15890-25-2,CCCCCN(CCCCC)C(=S)S[Sb](SC(=S)N(CCCCC)CCCCC)SC(=S)N(CCCCC)CCCCC,CCCCCN(CCCCC)C(=S)S[Sb](SC(=S)N(CCCCC)CCCCC)SC(=S)N(CCCCC)CCCCC,5.259,-6.0520000000000005,8.272,-4.5680000000000005,8.149
"Bis-(N'-Cyanoguanidine), N,N'''-1,6-hexanediyl-",15894-70-9,N=C(NCCCCCCNC(=N)NC#N)NC#N,N#CNC(=N)NCCCCCCNC(=N)NC#N,-0.75,-1.5590000000000002,-1.086,-13.684000000000001,4.847
Alachlor,15972-60-8,CCc1cccc(CC)c1N(COC)C(=O)CCl,CCc1cccc(CC)c1N(COC)C(=O)CCl,3.631,-3.888,2.737,-7.4,5.16
"2,4-Imidazolidinedione, 1-bromo-3-chloro-5,5-dimethyl-",16079-88-2,CC1(C)N(Br)C(=O)N(Cl)C1=O,CC1(C)C(=O)N(Cl)C(=O)N1Br,-0.5720000000000001,-1.453,0.852,-10.847000000000001,3.68
"Benzenesulfonic acid, 2,2'-(1,2-ethenediyl)bis[5-[[4-(4-morpholinyl)-6-(phenylamino)-1,3,5-triazin-2-yl]amino]-, disodium salt",16090-02-1,[Na+].[Na+].[O-][S](=O)(=O)c1cc(Nc2nc(Nc3ccccc3)nc(n2)N4CCOCC4)ccc1/C=C/c5ccc(Nc6nc(Nc7ccccc7)nc(n6)N8CCOCC8)cc5[S]([O-])(=O)=O,O=S(=O)([O-])c1cc(Nc2nc(Nc3ccccc3)nc(N3CCOCC3)n2)ccc1/C=C/c1ccc(Nc2nc(Nc3ccccc3)nc(N3CCOCC3)n2)cc1S(=O)(=O)[O-].[Na+].[Na+],3.337,-4.03,4.129,-11.575,2.778
Sodium L-glutamate,16177-21-2,[Na+].[Na+].N[C@@H](CCC([O-])=O)C([O-])=O,N[C@@H](CCC(=O)[O-])C(=O)[O-].[Na+].[Na+],-0.794,-1.08,-1.49,-9.951,5.839
"2-Norbornene, 5-ethylidene-",16219-75-3,CC=C1CC2CC1C=C2,CC=C1CC2C=CC1C2,4.206,-3.633,3.856,-1.1059999999999999,5.915
Dolomite(CaMg(CO3)2),16389-88-1,[Mg++].[Ca++].[O-]C([O-])=O.[O-]C([O-])=O,O=C([O-])[O-].O=C([O-])[O-].[Ca+2].[Mg+2],-1.5619999999999998,-0.336,0.597,-4.377,13.873
"Cyclopentanone, 2-pentylidene-",16424-35-4,CCCCC=C1CCCC1=O,CCCCC=C1CCCC1=O,3.606,-2.745,3.145,-4.354,8.961
"Benzenesulfonic acid, 2,2'-(1,2-ethenediyl)bis[5-[[4-[bis(2-hydroxyethyl)amino]-6-[(4-sulfophenyl)amino]-1,3,5-triazin-2-yl]amino]-, tetrasodium salt",16470-24-9,[Na+].[Na+].[Na+].[Na+].OCCN(CCO)c1nc(Nc2ccc(cc2)[S]([O-])(=O)=O)nc(Nc3ccc(/C=C/c4ccc(Nc5nc(Nc6ccc(cc6)[S]([O-])(=O)=O)nc(n5)N(CCO)CCO)cc4[S]([O-])(=O)=O)c(c3)[S]([O-])(=O)=O)n1,O=S(=O)([O-])c1ccc(Nc2nc(Nc3ccc(/C=C/c4ccc(Nc5nc(Nc6ccc(S(=O)(=O)[O-])cc6)nc(N(CCO)CCO)n5)cc4S(=O)(=O)[O-])c(S(=O)(=O)[O-])c3)nc(N(CCO)CCO)n2)cc1.[Na+].[Na+].[Na+].[Na+],2.634,-3.7110000000000003,2.642,-12.695,2.994
"Propionic acid, (R)-2-(4-chloro-2-methylphenoxy)-",16484-77-8,C[C@@H](Oc1ccc(Cl)cc1C)C(O)=O,Cc1cc(Cl)ccc1O[C@H](C)C(=O)O,-1.288,-3.095,3.221,-7.582999999999999,4.332
"Ferrate(1-), [N-[2-[bis[(carboxy-.kappa.O)methyl]amino-.kappa.N]ethyl]-N-[2-(hydroxy-.kappa.O)ethyl]glycinato(3-)-.kappa.N,.kappa.O]-, sodium",16485-47-5,[Na+].[Fe++].OCCN(CCN(CC([O-])=O)CC([O-])=O)CC([O-])=O,O=C([O-])CN(CCO)CCN(CC(=O)[O-])CC(=O)[O-].[Fe+2].[Na+],-0.7829999999999999,-1.391,-1.172,-10.665999999999999,6.99
"3-Butenenitrile, 2-methyl-",16529-56-9,CC(C=C)C#N,C=CC(C)C#N,0.159,-1.531,0.935,-3.764,12.517
N-[2-[4-(aminosulphonyl)phenyl]ethyl]-5-chloro-2-methoxybenzamide,16673-34-0,COc1ccc(Cl)cc1C(=O)NCCc2ccc(cc2)[S](N)(=O)=O,COc1ccc(Cl)cc1C(=O)NCCc1ccc(S(N)(=O)=O)cc1,2.132,-3.404,1.892,-11.104000000000001,10.114
"2-Naphthalenecarboxylic acid, 6-hydroxy-",16712-64-4,OC(=O)c1ccc2cc(O)ccc2c1,O=C(O)c1ccc2cc(O)ccc2c1,0.009000000000000001,-2.968,2.289,-10.719000000000001,4.746
Sodium sulfide,16721-80-5,[Na+].[Na+].[SH-],[Na+].[Na+].[SH-],1.204,-2.052,1.537,-3.469,-1.832
"Disulfurous acid, dipotassium salt",16731-55-8,[K+].[K+].[O-][S](=O)[S]([O-])(=O)=O,O=S([O-])S(=O)(=O)[O-].[K+].[K+],-0.337,-0.34,1.22,-10.29,4.042
"[R-(R*,R*)]-N,N'-[dithiobis[ethyleneimino(3-oxopropane-3,1-diyl)]]bis[2,4-dihydroxy-3,3-dimethylbutyramide]",16816-67-4,CC(C)(CO)[C@@H](O)C(=O)NCCC(=O)NCCSSCCNC(=O)CCNC(=O)[C@H](O)C(C)(C)CO,CC(C)(CO)[C@@H](O)C(=O)NCCC(=O)NCCSSCCNC(=O)CCNC(=O)[C@H](O)C(C)(C)CO,0.764,-1.7890000000000001,-0.433,-13.991,9.118
"Sulfuric acid, aluminium salt (3:2), hexadecahydrate",16828-11-8,O.O.O.O.O.O.O.O.[Al].[Al].O[S](O)(=O)=O.O[S](O)(=O)=O.O[S](O)(=O)=O,O.O.O.O.O.O.O.O.O=S(=O)(O)O.O=S(=O)(O)O.O=S(=O)(O)O.[Al].[Al],-0.302,1.061,-5.095,-10.385,3.764
"Borate(1-), tetrafluoro-, hydrogen",16872-11-0,[H+].F[B-](F)(F)F,F[B-](F)(F)F.[H+],3.448,-1.261,1.599,1.411,1.65
"1,2-Benzenedicarboxylic acid, 2,2-dimethyl-1-(1-methylethyl)-3-(2-methyl-1-oxopropoxy)propyl phenylmethyl ester",16883-83-3,CC(C)C(OC(=O)c1ccccc1C(=O)OCc2ccccc2)C(C)(C)COC(=O)C(C)C,CC(C)C(=O)OCC(C)(C)C(OC(=O)c1ccccc1C(=O)OCc1ccccc1)C(C)C,4.476,-5.461,5.693,-5.664,5.723
Dipotassium hexafluorotitanate,16919-27-0,[F-].[F-].[F-].[F-].[F-].[F-].[K+].[K+].[Ti+4],[F-].[F-].[F-].[F-].[F-].[F-].[K+].[K+].[Ti+4],1.002,-1.9580000000000002,2.315,-2.6439999999999997,4.575
Sodium tetrahydroborate,16940-66-2,[BH4-].[Na+],[BH4-].[Na+],0.7240000000000001,-1.7890000000000001,1.483,-1.8159999999999998,2.694
"2-Benzothiazolamine, N-methyl-",16954-69-1,CNc1sc2ccccc2n1,CNc1nc2ccccc2s1,2.737,-3.148,2.305,-7.614,2.272
Ditridecyl adipate,16958-92-2,CCCCCCCCCCCCCOC(=O)CCCCC(=O)OCCCCCCCCCCCCC,CCCCCCCCCCCCCOC(=O)CCCCC(=O)OCCCCCCCCCCCCC,5.636,-5.511,8.601,-2.23,7.128
"Iron, [N-[2-[bis[(carboxy-.kappa.O)methyl]amino-.kappa.N]ethyl]-N-[2-(hydroxy-.kappa.O)ethyl]glycinato(3-)-.kappa.N,.kappa.O]",17084-02-5,[Fe+3].OCCN(CCN(CC([O-])=O)CC([O-])=O)CC([O-])=O,O=C([O-])CN(CCO)CCN(CC(=O)[O-])CC(=O)[O-].[Fe+3],-0.782,-1.3559999999999999,-1.258,-10.905,8.094
C.I. Reactive Black-5,17095-24-8,[Na+].[Na+].[Na+].[Na+].Nc1c(N=Nc2ccc(cc2)[S](=O)(=O)CCO[S]([O-])(=O)=O)c(cc3C=C(/C(=N/Nc4ccc(cc4)[S](=O)(=O)CCO[S]([O-])(=O)=O)C(=O)c13)[S]([O-])(=O)=O)[S]([O-])(=O)=O,Nc1c(N=Nc2ccc(S(=O)(=O)CCOS(=O)(=O)[O-])cc2)c(S(=O)(=O)[O-])cc2c1C(=O)/C(=N\Nc1ccc(S(=O)(=O)CCOS(=O)(=O)[O-])cc1)C(S(=O)(=O)[O-])=C2.[Na+].[Na+].[Na+].[Na+],1.208,-2.6289999999999996,2.07,-11.628,4.732
"Urea, sulfate (2:1)",17103-31-0,NC(N)=O.NC(N)=O.O[S](O)(=O)=O,NC(N)=O.NC(N)=O.O=S(=O)(O)O,-1.0590000000000002,1.825,-4.62,-14.116,5.845
Barium hydroxide,17194-00-2,[OH-].[OH-].[Ba++],[Ba+2].[OH-].[OH-],0.581,-1.545,1.4580000000000002,-4.279,18.561
"Phosphoramidothioic acid, O,O-dimethyl ester",17321-47-0,CO[P](N)(=S)OC,COP(N)(=S)OC,-0.907,-0.423,-0.527,-9.898,7.211
"Carbonochloridic acid, 1-methylpropyl ester",17462-58-7,CCC(C)OC(Cl)=O,CCC(C)OC(=O)Cl,2.945,-1.7890000000000001,2.642,-1.703,3.878
"4,7-Methano-1H-inden-6-ol, 3a,4,5,6,7,7a-hexahydro-, propanoate",17511-60-3,CCC(O)=O.OC1CC2CC1C3CC=CC23,CCC(=O)O.OC1CC2CC1C1CC=CC21,-0.939,-2.207,0.997,-5.598,5.32
"Phenol, 2,6-bis(1,1-dimethylethyl)-4-(1-methylpropyl)-",17540-75-9,CCC(C)c1cc(c(O)c(c1)C(C)(C)C)C(C)(C)C,CCC(C)c1cc(C(C)(C)C)c(O)c(C(C)(C)C)c1,5.651,-5.1560000000000015,5.199,-3.1060000000000003,10.502
"Butanedinitrile, ethyl-",17611-82-4,CCC(CC#N)C#N,CCC(C#N)CC#N,-0.682,-1.445,0.394,-5.669,17.116
Methyl 2-chloropropionate,17639-93-9,COC(=O)C(C)Cl,COC(=O)C(C)Cl,0.988,-1.05,1.029,-4.449,8.274
"Silanetriol, ethyl-, triacetate",17689-77-9,CC[Si](O)(O)O.CC(O)=O.CC(O)=O.CC(O)=O,CC(=O)O.CC(=O)O.CC(=O)O.CC[Si](O)(O)O,-4.495,0.937,-0.981,-10.862,6.475
Sodium 4-chloro-3-nitrobenzenesulphonate,17691-19-9,[Na+].[O-][N+](=O)c1cc(ccc1Cl)[S]([O-])(=O)=O,O=[N+]([O-])c1cc(S(=O)(=O)[O-])ccc1Cl.[Na+],1.489,-2.4619999999999997,1.716,-8.133,4.201
"Benzene, 4-nitro-1,2,3-trichloro-",17700-09-3,[O-][N+](=O)c1ccc(Cl)c(Cl)c1Cl,O=[N+]([O-])c1ccc(Cl)c(Cl)c1Cl,4.129,-4.2989999999999995,3.509,-4.428,4.718
"Phthalimide, N-(cyclohexylthio)-",17796-82-6,O=C1N(SC2CCCCC2)C(=O)c3ccccc13,O=C1c2ccccc2C(=O)N1SC1CCCCC1,2.174,-4.279,3.65,-8.619,4.823
"Picolinonitrile, tetrachloro-",17824-83-8,Clc1nc(C#N)c(Cl)c(Cl)c1Cl,N#Cc1nc(Cl)c(Cl)c(Cl)c1Cl,3.738,-3.7910000000000004,3.239,-5.946000000000001,3.525
"2-Naphthalenecarboxylic acid, 4-[(4-chloro-5-methyl-2-sulfophenyl)azo]-3-hydroxy-, calcium salt (1:1)",17852-99-2,[Ca++].Cc1cc(N\N=C/2C(=O)C(=Cc3ccccc23)C([O-])=O)c(cc1Cl)[S]([O-])(=O)=O,Cc1cc(N/N=C2/C(=O)C(C(=O)[O-])=Cc3ccccc32)c(S(=O)(=O)[O-])cc1Cl.[Ca+2],2.585,-3.7110000000000003,3.732,-10.253,8.421
"[(1,1-dimethyl-2-propynyl)oxy]trimethylsilane",17869-77-1,CC(C)(O[Si](C)(C)C)C#C,C#CC(C)(C)O[Si](C)(C)C,1.966,-2.235,3.559,-3.367,15.726
Aluminium sulfate hydrate,17927-65-0,O.[Al+3].[Al+3].[O-][S]([O-])(=O)=O.[O-][S]([O-])(=O)=O.[O-][S]([O-])(=O)=O,O.O=S(=O)([O-])[O-].O=S(=O)([O-])[O-].O=S(=O)([O-])[O-].[Al+3].[Al+3],0.138,0.3,-0.052000000000000005,-6.89,14.187
"2,4,6,8,3,5,7-Benzotetraoxatriplumbacycloundecin-3,5,7-triylidene, 1,9-dihydro-1,9-dioxo-",17976-43-1,O=C1O[Pb]O[Pb]O[Pb]OC(=O)c2ccccc12,O=C1O[Pb]O[Pb]O[Pb]OC(=O)c2ccccc21,0.8240000000000001,-1.3530000000000002,1.966,-7.861000000000001,4.647
2-Amino-5-chlorobenzophenone oxime,18097-52-4,Nc1ccc(Cl)cc1C(=NO)c2ccccc2,Nc1ccc(Cl)cc1C(=NO)c1ccccc1,2.273,-4.402,3.72,-8.84,9.019
"Bicyclo[3.1.1]heptane, 6,6-dimethyl-2-methylene-, (1S,5S)-",18172-67-3,CC1(C)[C@H]2CCC(=C)[C@@H]1C2,C=C1CC[C@H]2C[C@@H]1C2(C)C,3.687,-4.1080000000000005,4.77,-1.349,6.038
"Hexanoic acid, 2-ethyl-, oxybis(2,1-ethanediyloxy-2,1-ethanediyl) ester",18268-70-7,CCCCC(CC)C(=O)OCCOCCOCCOCCOC(=O)C(CC)CCCC,CCCCC(CC)C(=O)OCCOCCOCCOCCOC(=O)C(CC)CCCC,4.346,-3.806,3.98,-4.92,12.002
"Urea, 1,3-bis(trimethylsilyl)-",18297-63-7,C[Si](C)(C)NC(=O)N[Si](C)(C)C,C[Si](C)(C)NC(=O)N[Si](C)(C)C,-1.898,-2.114,2.849,-9.515,4.529
"2-Propen-1-amine, N-ethyl-2-methyl-",18328-90-0,CCNCC(C)=C,C=C(C)CNCC,-0.792,-1.456,1.16,-5.267,10.233
Diprogulic acid,18467-77-1,CC1(C)OCC2OC3(OC(C)(C)OC3C2O1)C(O)=O,CC1(C)OCC2OC3(C(=O)O)OC(C)(C)OC3C2O1,-0.328,-0.976,1.125,-10.076,5.121
"1-Octen-3-ol, 3,7-dimethyl-",18479-49-7,CC(C)CCCC(C)(O)C=C,C=CC(C)(O)CCCC(C)C,3.032,-2.7260000000000004,3.319,-3.6830000000000003,8.393
"7-Octen-2-ol, 2,6-dimethyl-",18479-58-8,CC(CCCC(C)(C)O)C=C,C=CC(C)CCCC(C)(C)O,2.86,-2.551,3.091,-2.853,12.449
"Urea, N-2-benzothiazolyl-N,N'-dimethyl-",18691-97-9,CNC(=O)N(C)c1sc2ccccc2n1,CNC(=O)N(C)c1nc2ccccc2s1,2.649,-3.07,1.692,-10.648,4.091
"Glycine, N,N'-1,3-propanediylbis[N-(carboxymethyl)]-, tetrasodium salt",18719-03-4,[Na+].[Na+].[Na+].[Na+].[O-]C(=O)CN(CCCN(CC([O-])=O)CC([O-])=O)CC([O-])=O,O=C([O-])CN(CCCN(CC(=O)[O-])CC(=O)[O-])CC(=O)[O-].[Na+].[Na+].[Na+].[Na+],-0.394,-1.733,-0.599,-9.78,4.83
"Thiophene, 3-(decyloxy)tetrahydro-, 1,1-dioxide",18760-44-6,CCCCCCCCCCOC1CC[S](=O)(=O)C1,CCCCCCCCCCOC1CCS(=O)(=O)C1,4.242,-3.01,3.002,-5.245,6.751
"7-Chloro-1,3-dihydro-1-methyl-5-phenyl-2-oxo-2H-1,4-benzodiazepin-3-yl acetate",18818-64-9,CN1C(=O)C(OC(C)=O)N=C(c2ccccc2)c3cc(Cl)ccc13,CC(=O)OC1N=C(c2ccccc2)c2cc(Cl)ccc2N(C)C1=O,2.862,-3.681,3.072,-8.015,4.414
(3-Cyano-2-hydroxypropyl)trimethylammonium chloride,18933-33-0,[Cl-].C[N+](C)(C)CC(O)CC#N,C[N+](C)(C)CC(O)CC#N.[Cl-],-2.878,-1.121,-3.039,-7.385,13.002
Sodium dihydrogen citrate,18996-35-5,[Na+].OC(=O)CC(O)(CC(O)=O)C([O-])=O,O=C(O)CC(O)(CC(=O)O)C(=O)[O-].[Na+],-4.001,-0.599,-1.06,-12.648,2.423
"adipic acid, ammonium salt",19090-60-9,[NH4+].[NH4+].[O-]C(=O)CCCCC([O-])=O,O=C([O-])CCCCC(=O)[O-].[NH4+].[NH4+],0.374,-1.3019999999999998,0.5589999999999999,-5.499,9.403
"1-Hexadecanol, aluminum salt",19141-82-3,[Al+3].CCCCCCCCCCCCCCCC[O-].CCCCCCCCCCCCCCCC[O-].CCCCCCCCCCCCCCCC[O-],CCCCCCCCCCCCCCCC[O-].CCCCCCCCCCCCCCCC[O-].CCCCCCCCCCCCCCCC[O-].[Al+3],5.152,-5.257999999999999,8.215,-0.6729999999999999,10.198
"1,2-Ethanediamine, N-ethyl-N-(3-methylphenyl)-",19248-13-6,CCN(CCN)c1cccc(C)c1,CCN(CCN)c1cccc(C)c1,0.158,-3.716,1.859,-6.792999999999999,8.426
"Propionitrile, 2-amino-2-methyl-",19355-69-2,CC(C)(N)C#N,CC(C)(N)C#N,-2.405,-0.871,0.041,-9.082,5.73
Hexahydro-4-methylphthalic anhydride,19438-60-9,CC1CCC2C(C1)C(=O)OC2=O,CC1CCC2C(=O)OC(=O)C2C1,2.359,-2.239,1.442,-4.944,4.437
"1,3-Isobenzofurandione, 5-methyl-",19438-61-0,Cc1ccc2C(=O)OC(=O)c2c1,Cc1ccc2c(c1)C(=O)OC2=O,2.5540000000000003,-3.2560000000000002,1.909,-7.053,4.435
"Peroxydicarbonic acid, bis(1-methylpropyl) ester",19910-65-7,CCC(C)OC(=O)OOC(=O)OC(C)CC,CCC(C)OC(=O)OOC(=O)OC(C)CC,2.154,-3.235,3.149,-3.282,5.596
"2-Cyclohexen-1-one, 2,5,6-trimethyl-",20030-30-2,CC1CC=C(C)C(=O)C1C,CC1=CCC(C)C(C)C1=O,3.125,-2.157,2.695,-3.312,7.352
Dimethyl (3-(hydroxymethyl)amino)-3-oxopropyl phosphonate,20120-33-6,CO[P](=O)(CCC(=O)NCO)OC,COP(=O)(CCC(=O)NCO)OC,-0.268,-0.45,-1.561,-11.811,7.952
"Phosphorous acid, 2-(1,1-dimethylethyl)-4-[1-[3-(1,1-dimethylethyl)-4-hydroxyphenyl]-1-methylethyl]phenyl bis(4-nonylphenyl) ester",20227-53-6,CCCCCCCCCc1ccc(OP(Oc2ccc(CCCCCCCCC)cc2)Oc3ccc(cc3C(C)(C)C)C(C)(C)c4ccc(O)c(c4)C(C)(C)C)cc1,CCCCCCCCCc1ccc(OP(Oc2ccc(CCCCCCCCC)cc2)Oc2ccc(C(C)(C)c3ccc(O)c(C(C)(C)C)c3)cc2C(C)(C)C)cc1,5.085,-6.612,8.849,-4.343999999999999,8.067
2-Ethylhexyl laurate,20292-08-4,CCCCCCCCCCCC(=O)OCC(CC)CCCC,CCCCCCCCCCCC(=O)OCC(CC)CCCC,5.712999999999999,-5.008,7.562,-1.263,6.951
"Butanamide, N-methyl-3-oxo-",20306-75-6,CNC(=O)CC(C)=O,CNC(=O)CC(C)=O,-1.127,-0.026000000000000002,-1.6469999999999998,-10.825999999999999,4.568
"2-Propanol, 1-(2-methoxy-1-methylethoxy)-",20324-32-7,COCC(C)OCC(C)O,COCC(C)OCC(C)O,-0.191,-0.5379999999999999,-0.165,-7.1,14.501
"2-Propanol, 1-[2-(2-methoxy-1-methylethoxy)-1-methylethoxy]-",20324-33-8,COCC(C)OCC(C)OCC(C)O,COCC(C)OCC(C)OCC(C)O,0.604,-1.046,0.244,-6.892,14.565
Copper dihydroxide,20427-59-2,[OH-].[OH-].[Cu++],[Cu+2].[OH-].[OH-],0.544,-1.472,1.238,-3.965,22.964
"Carbazic acid, dithio-, hydrazine salt",20469-71-0,NN.NNC(S)=S,NN.NNC(=S)S,-3.309,0.27699999999999997,-0.285,-12.130999999999998,6.864
Ethyl 4-methyloxazole-5-carboxylate,20485-39-6,CCOC(=O)c1ocnc1C,CCOC(=O)c1ocnc1C,0.564,-2.008,0.974,-7.702000000000001,3.956
"Glycine, N,N'-1,2-ethanediylbis[N-(carboxymethyl)-, diammonium salt",20824-56-0,[NH4+].[NH4+].OC(=O)CN(CCN(CC(O)=O)CC([O-])=O)CC([O-])=O,O=C([O-])CN(CCN(CC(=O)[O-])CC(=O)O)CC(=O)O.[NH4+].[NH4+],-2.331,-1.035,-2.902,-11.633,6.85
"D-Mannitol, 1-O-alpha-D-glucopyranosyl-",20942-99-8,OC[C@@H](O)[C@@H](O)[C@H](O)[C@H](O)CO[C@H]1O[C@H](CO)[C@@H](O)[C@H](O)[C@H]1O,OC[C@H]1O[C@H](OC[C@@H](O)[C@@H](O)[C@H](O)[C@H](O)CO)[C@H](O)[C@@H](O)[C@@H]1O,-1.846,0.29600000000000004,-3.784,-22.315,6.275
"D-Ribitol, 1-deoxy-1-(6-phenylazo-3,4-xylidino)-",21037-26-3,Cc1cc(NC[C@H](O)[C@H](O)[C@H](O)CO)c(cc1C)N=Nc2ccccc2,Cc1cc(N=Nc2ccccc2)c(NC[C@H](O)[C@H](O)[C@H](O)CO)cc1C,2.603,-2.6639999999999997,2.052,-14.064,4.63
calcium hydrogen phosphonate,21056-98-4,[Ca++].O[PH]([O-])=O.O[PH]([O-])=O,O=[PH]([O-])O.O=[PH]([O-])O.[Ca+2],1.02,0.64,-2.141,-10.639000000000001,5.164
Barium sulphide,21109-95-5,[S--].[Ba++],[Ba+2].[S-2],3.427,-2.005,2.8080000000000003,-4.046,4.447
"Ferrate(1-), [[N,N'-1,2-ethanediylbis[N-[(carboxy-,kappa.O)methyl]glycinato",21265-50-9,[NH4+].[Fe+3].[O-]C(=O)CN(CCN(CC([O-])=O)CC([O-])=O)CC([O-])=O,O=C([O-])CN(CCN(CC(=O)[O-])CC(=O)[O-])CC(=O)[O-].[Fe+3].[NH4+],-0.8440000000000001,-1.466,-0.93,-10.338,8.595
"Butanoic acid, 3-oxo-, 2-[(2-methyl-1-oxo-2-propenyl)oxy]ethyl ester",21282-97-3,CC(=O)CC(=O)OCCOC(=O)C(C)=C,C=C(C)C(=O)OCCOC(=O)CC(C)=O,0.892,-1.912,0.964,-7.349,9.747
"Urea, sulfate (1:1)",21351-39-3,NC(N)=O.O[S](O)(=O)=O,NC(N)=O.O=S(=O)(O)O,-0.959,1.954,-5.8660000000000005,-14.034,4.29
sodium N-methyl-N-(1-oxododecyl)-beta-alaninate,21539-58-2,[Na+].CCCCCCCCCCCC(=O)N(C)CCC([O-])=O,CCCCCCCCCCCC(=O)N(C)CCC(=O)[O-].[Na+],3.156,-3.645,3.939,-5.331,5.26
Aluminium hydroxide,21645-51-2,[OH-].[OH-].[OH-].[Al+3],[Al+3].[OH-].[OH-].[OH-],0.354,-1.425,0.989,-3.984,22.043
Nifedipine,21829-25-4,COC(=O)C1=C(C)NC(=C(C1c2ccccc2[N+]([O-])=O)C(=O)OC)C,COC(=O)C1=C(C)NC(C)=C(C(=O)OC)C1c1ccccc1[N+](=O)[O-],3.023,-3.9019999999999997,2.7960000000000003,-7.321000000000001,6.057
"Benzene, 1,1'-(1-methylethylidene)bis[3,5-dibromo-4-(2,3-dibromopropoxy)-",21850-44-2,CC(C)(c1cc(Br)c(OCC(Br)CBr)c(Br)c1)c2cc(Br)c(OCC(Br)CBr)c(Br)c2,CC(C)(c1cc(Br)c(OCC(Br)CBr)c(Br)c1)c1cc(Br)c(OCC(Br)CBr)c(Br)c1,5.525,-7.421,7.836,-5.119,13.116
"1-Decanamine, N-methyl-N-octyl-",22020-14-0,CCCCCCCCCCN(C)CCCCCCCC,CCCCCCCCCCN(C)CCCCCCCC,3.569,-4.9239999999999995,7.097,-1.827,9.965
"[Ethylenebis[nitrilobis(methylene)]]tetrakisphosphonic acid, sodium salt",22036-77-7,O[P](O)(=O)CN(CCN(C[P](O)(O)=O)C[P](O)(O)=O)C[P](O)(O)=O,O=P(O)(O)CN(CCN(CP(=O)(O)O)CP(=O)(O)O)CP(=O)(O)O,1.7280000000000002,0.737,-3.776,-19.047,5.341
"Carbamothioic acid, S,S'-[2-(dimethylamino)-1,3-propanediyl] ester,monohydrochloride",22042-59-7,[Cl-].C[NH+](C)C(CSC(N)=O)CSC(N)=O,C[NH+](C)C(CSC(N)=O)CSC(N)=O.[Cl-],-0.725,-1.784,-1.753,-8.891,3.095
"Octadecanoic acid, 2-ethylhexyl ester",22047-49-0,CCCCCCCCCCCCCCCCCC(=O)OCC(CC)CCCC,CCCCCCCCCCCCCCCCCC(=O)OCC(CC)CCCC,5.744,-5.555,8.932,-1.037,7.274
Naproxen,22204-53-1,COc1ccc2cc(ccc2c1)C(C)C(O)=O,COc1ccc2cc(C(C)C(=O)O)ccc2c1,-0.138,-3.7510000000000003,3.215,-8.218,4.068
Fenamiphos,22224-92-6,CCO[P](=O)(NC(C)C)Oc1ccc(SC)c(C)c1,CCOP(=O)(NC(C)C)Oc1ccc(SC)c(C)c1,3.722,-4.13,3.169,-8.786,5.748
"Glycine, N,N'-1,2-ethanediylbis[N-(carboxymethyl)-, tetraammonium salt",22473-78-5,N.N.N.N.OC(=O)CN(CCN(CC(O)=O)CC(O)=O)CC(O)=O,N.N.N.N.O=C(O)CN(CCN(CC(=O)O)CC(=O)O)CC(=O)O,-3.417,-0.575,-3.486,-12.377,6.899
"Propanoic acid, 2-methyl-, 3-(benzoyloxy)-2,2,4-trimethylpentyl ester",22527-63-5,CC(C)C(OC(=O)c1ccccc1)C(C)(C)COC(=O)C(C)C,CC(C)C(=O)OCC(C)(C)C(OC(=O)c1ccccc1)C(C)C,4.7330000000000005,-4.954,5.396,-4.877,6.575
"2-Butanone, 1,1-dichloro-3,3-dimethyl-",22591-21-5,CC(C)(C)C(=O)C(Cl)Cl,CC(C)(C)C(=O)C(Cl)Cl,3.721,-2.145,2.511,-4.342,7.949