chemical_name,cas,smiles,canonical_smiles,log_p,log_s,kow,water-energy,pka
Aspartame,22839-47-0,COC(=O)C(Cc1ccccc1)NC(=O)C(N)CC(O)=O,COC(=O)C(Cc1ccccc1)NC(=O)C(N)CC(=O)O,-1.074,-2.25,-1.693,-11.565,5.318
"Decanamide, N-[3-(dimethylamino)propyl]-",22890-11-5,CCCCCCCCCC(=O)NCCCN(C)C,CCCCCCCCCC(=O)NCCCN(C)C,1.007,-3.324,2.839,-6.053,9.654
"2-Butanone, O,O',O""-(methylsilylidyne)trioxime",22984-54-9,CC/C(C)=N/O[Si@](C)(O\N=C(C)\CC)O\N=C(C)\CC,CC/C(C)=N/O[Si](C)(O/N=C(\C)CC)O/N=C(\C)CC,2.524,-3.0839999999999996,4.694,-6.187,6.669
"1,3-Propanediol, 2,2'-[oxybis(methylene)]bis[2-ethyl-",23235-61-2,CCC(CO)(CO)COCC(CC)(CO)CO,CCC(CO)(CO)COCC(CC)(CO)CO,1.391,-1.271,-0.794,-11.425999999999998,10.648
"Ethanol, 2,2'-iminobis-, acetate (salt)",23251-72-1,CC(O)=O.OCCNCCO,CC(=O)O.OCCNCCO,-3.805,0.469,-1.491,-10.427999999999999,8.347
"1-Hexanol, aluminun salt",23275-26-5,[Al+3].CCCCCC[O-].CCCCCC[O-].CCCCCC[O-],CCCCCC[O-].CCCCCC[O-].CCCCCC[O-].[Al+3],3.946,-2.255,2.802,-1.311,11.517
"Butanedioic acid, sulfo-, 1,4-dicyclohexyl ester, sodium salt",23386-52-9,[Na+].[O-][S](=O)(=O)C(CC(=O)OC1CCCCC1)C(=O)OC2CCCCC2,O=C(CC(C(=O)OC1CCCCC1)S(=O)(=O)[O-])OC1CCCCC1.[Na+],2.958,-3.5239999999999996,3.774,-6.4670000000000005,7.073
"Phenol, 3-(chloromethyl)-6-(1,1-dimethylethyl)-2,4-dimethyl-",23500-79-0,Cc1cc(c(O)c(C)c1CCl)C(C)(C)C,Cc1cc(C(C)(C)C)c(O)c(C)c1CCl,5.021,-4.5310000000000015,4.417,-4.238,10.731
"3,6,9,12,15,18-Hexaoxaeicosane",23601-39-0,CCOCCOCCOCCOCCOCCOCC,CCOCCOCCOCCOCCOCCOCC,1.978,-1.32,-0.166,-6.542999999999999,15.219
"16-Hexadecanol, 2,5,8,11,14-pentaoxa",23778-52-1,COCCOCCOCCOCCOCCO,COCCOCCOCCOCCOCCO,0.4270000000000001,-0.774,-1.463,-7.886,14.976
"13-Tridecanol, 2,5,8,11-tetraoxa-",23783-42-8,COCCOCCOCCOCCO,COCCOCCOCCOCCO,0.155,-0.588,-1.47,-7.867000000000001,14.94
"1,2,3-Benzotriazin-4(3H)-one, 3-(hydroxymethyl)-",24310-40-5,OCN1N=Nc2ccccc2C1=O,O=c1c2ccccc2nnn1CO,0.246,-1.37,-0.113,-13.857000000000001,5.082
"Formic acid, chloro-, 2-ethylhexyl ester",24468-13-1,CCCCC(CC)COC(Cl)=O,CCCCC(CC)COC(=O)Cl,4.785,-3.358,4.777,-1.3090000000000002,5.129
"Aniline, 2-ethyl-6-methyl-",24549-06-2,CCc1cccc(C)c1N,CCc1cccc(C)c1N,1.5590000000000002,-2.52,2.379,-5.3260000000000005,4.411
"Morpholine, 2,6-dimethyl-4-tridecyl-",24602-86-6,CCCCCCCCCCCCCN1CC(C)OC(C)C1,CCCCCCCCCCCCCN1CC(C)OC(C)C1,3.516,-4.051,5.856,-3.102,7.976
Potassium sorbate,24634-61-5,[K+].C/C=C/C=C/C([O-])=O,C/C=C/C=C/C(=O)[O-].[K+],0.575,-1.385,1.844,-6.13,7.129
"1-Propanol, 2-[2-[2-(2-hydroxypropoxy)propoxy]propoxy]-",24800-25-7,CC(O)COC(C)COC(C)COC(C)CO,CC(O)COC(C)COC(C)COC(C)CO,0.442,-1.143,0.119,-8.051,14.504
"Propanol, [(1-methyl-1,2-ethanediyl)bis(oxy)]bis-",24800-44-0,CC(COCCCO)OCCCO,CC(COCCCO)OCCCO,0.14800000000000002,-0.993,-0.746,-8.112,13.094
Methyl dihydrojasmonate,24851-98-7,CCCCCC1C(CCC1=O)CC(=O)OC,CCCCCC1C(=O)CCC1CC(=O)OC,3.559,-3.1630000000000003,3.132,-4.01,7.543
"Acetic acid ethenyl ester, polymer with ethene",24937-78-8,OC(=O)CC=C.C=C,C=C.C=CCC(=O)O,-1.602,-0.39399999999999996,0.73,-5.877999999999999,5.293
"Formaldehyde, polymer with 1,3-benzenediol",24969-11-7,Oc1cccc(O)c1.C=O,C=O.Oc1cccc(O)c1,1.314,-1.204,0.639,-9.69,6.372
"Styrene, methyl-",25013-15-4,CC=Cc1ccccc1,CC=Cc1ccccc1,3.149,-2.978,3.457,-1.742,3.552
Bentazone,25057-89-0,CC(C)N1C(=O)c2ccccc2N[S]1(=O)=O,CC(C)N1C(=O)c2ccccc2NS1(=O)=O,0.211,-2.241,2.365,-12.442,5.831
"Phenol, 4,4'-(1-methylethylidene)bis-, polymer with (chloromethyl)oxirane",25068-38-6,CC(C)(c1ccc(O)cc1)c2ccc(O)cc2.ClCC3CO3,CC(C)(c1ccc(O)cc1)c1ccc(O)cc1.ClCC1CO1,3.469,-3.3360000000000003,2.256,-7.688,9.163
Isooctyl mercaptoacetate,25103-09-7,CC(C)CCCCCOC(=O)CS,CC(C)CCCCCOC(=O)CS,3.724,-3.117,3.806,-3.74,8.175
Isooctanoic acid,25103-52-0,CC(C)CCCCC(O)=O,CC(C)CCCCC(=O)O,0.5660000000000001,-2.0340000000000003,2.042,-4.281000000000001,5.537
"Zinc, bis(O,O-diisodecyl phosphorodithioato-kappa.S,kappa.S')-",25103-54-2,[Zn++].CC(C)CCCCCCCO[P]([S-])(=S)OCCCCCCCC(C)C.CC(C)CCCCCCCO[P]([S-])(=S)OCCCCCCCC(C)C,CC(C)CCCCCCCOP(=S)([S-])OCCCCCCCC(C)C.CC(C)CCCCCCCOP(=S)([S-])OCCCCCCCC(C)C.[Zn+2],5.202000000000001,-5.356,8.642000000000001,-2.3569999999999998,5.778
tert-Dodecanethiol,25103-58-6,CC(C)C(C)(C)C(C)(C)C(C)(C)S,CC(C)C(C)(C)C(C)(C)C(C)(C)S,1.35,-4.417,4.519,-0.892,10.933
Piperazineethanol,25154-38-5,OCCN1CCNCC1,OCCN1CCNCC1,-1.446,-0.602,-1.209,-10.344000000000001,8.999
"Phenol, nonyl-",25154-52-3,CCCCCCCCCc1ccccc1O,CCCCCCCCCc1ccccc1O,4.32,-4.843999999999999,6.376,-3.445,9.039
"Benzene, dinitro-",25154-54-5,[O-][N+](=O)c1ccccc1[N+]([O-])=O,O=[N+]([O-])c1ccccc1[N+](=O)[O-],1.311,-2.492,1.644,-5.565,2.586
"Phenol, dimethyl-, phophate (3:1)",25155-23-1,Cc1cc(C)cc(O[P](=O)(Oc2cc(C)cc(C)c2)Oc3cc(C)cc(C)c3)c1,Cc1cc(C)cc(OP(=O)(Oc2cc(C)cc(C)c2)Oc2cc(C)cc(C)c2)c1,4.605,-6.017,6.042999999999998,-5.5920000000000005,6.198
"Peroxide, [1,3(or 1,4)-phenylenebis(1-methylethylidene)]bis[(1,1-dimethylethyl)",25155-25-3,CC(C)(C)OOC(C)(C)c1ccc(cc1)C(C)(C)OOC(C)(C)C,CC(C)(C)OOC(C)(C)c1ccc(C(C)(C)OOC(C)(C)C)cc1,5.3820000000000014,-3.7110000000000003,7.313,-6.162999999999999,12.144
Butene,25167-67-3,CCC=C,C=CCC,3.318,-1.517,2.456,1.963,4.292
"Pentene, 2,4,4-trimethyl-",25167-70-8,CC(=C)CC(C)(C)C,C=C(C)CC(C)(C)C,4.915,-2.885,4.633,0.563,9.666
Chloronitrobenzene,25167-93-5,[O-][N+](=O)c1ccccc1Cl,O=[N+]([O-])c1ccccc1Cl,3.012,-2.812,2.282,-4.052,5.068
"Toluene, chloro-",25168-05-2,Cc1ccccc1Cl,Cc1ccccc1Cl,4.114,-3.097,3.449,-1.07,3.552
"Tin, dibutyl-bis-isooctylmercaptoacetate",25168-24-5,[Sn+4].CCCC[S](CCCCCC(C)C)C(CCCC)(SCCCCCC(C)C)C([O-])=O.CCCC[S](CCCCCC(C)C)C(CCCC)(SCCCCCC(C)C)C([O-])=O.CCCC[S](CCCCCC(C)C)C(CCCC)(SCCCCCC(C)C)C([O-])=O.CCCC[S](CCCCCC(C)C)C(CCCC)(SCCCCCC(C)C)C([O-])=O,CCCC[S](CCCCCC(C)C)C(CCCC)(SCCCCCC(C)C)C(=O)[O-].CCCC[S](CCCCCC(C)C)C(CCCC)(SCCCCCC(C)C)C(=O)[O-].CCCC[S](CCCCCC(C)C)C(CCCC)(SCCCCCC(C)C)C(=O)[O-].CCCC[S](CCCCCC(C)C)C(CCCC)(SCCCCCC(C)C)C(=O)[O-].[Sn+4],5.2,-6.0729999999999995,8.617,-2.7289999999999996,9.915
"2,4 D Acid Isooctylester",25168-26-7,CCCCC(CC)COC(=O)COc1ccc(Cl)cc1Cl,CCCCC(CC)COC(=O)COc1ccc(Cl)cc1Cl,4.5539999999999985,-5.12,5.53,-3.343,7.233
Hexene,25264-93-1,CCCCC=C,C=CCCCC,4.405,-2.178,3.536,1.535,4.805
"Propanol, oxybis-",25265-71-8,OCCCOCCCO,OCCCOCCCO,-0.374,-0.456,-1.41,-8.642999999999999,14.501
"Propanoic acid, 2-methyl-, monoester with 2,2,4-trimethyl-1,3-pentanediol",25265-77-4,CC(C)C(O)C(C)(C)COC(=O)C(C)C,CC(C)C(=O)OCC(C)(C)C(O)C(C)C,3.302,-2.7039999999999997,3.429,-6.178999999999999,10.646
"Benzene, tetrapropylene-",25265-78-5,CCCc1cc(CCC)c(CCC)c(CCC)c1,CCCc1cc(CCC)c(CCC)c(CCC)c1,5.737,-5.809,7.92,-1.732,4.615
Isofenphos,25311-71-1,CCO[P](=S)(NC(C)C)Oc1ccccc1C(=O)OC(C)C,CCOP(=S)(NC(C)C)Oc1ccccc1C(=O)OC(C)C,3.353,-4.959,4.141,-7.662999999999999,4.393
"Benzene, bis(1-methylethyl)-",25321-09-9,CC(C)c1ccccc1C(C)C,CC(C)c1ccccc1C(C)C,5.267,-4.146,4.715,-1.19,5.118
"Benzene, methyldinitro-",25321-14-6,Cc1cccc(c1[N+]([O-])=O)[N+]([O-])=O,Cc1cccc([N+](=O)[O-])c1[N+](=O)[O-],1.3,-2.8289999999999997,2.331,-5.153,2.648
Xylenesulphonic acid,25321-41-9,Cc1cccc(c1C)[S](O)(=O)=O,Cc1cccc(S(=O)(=O)O)c1C,1.205,-1.6580000000000001,-1.503,-9.398,-5.371
"Naphthalenesulfonic acid, dinonyl-",25322-17-2,CCCCCCCCCc1cc2ccccc2c(c1CCCCCCCCC)[S](O)(=O)=O,CCCCCCCCCc1cc2ccccc2c(S(=O)(=O)O)c1CCCCCCCCC,4.473,-5.7810000000000015,6.568,-4.91,2.258
"2-[3-[4-(3-chlorophenyl)piperazin-1-y]propyl]-1,2,4-triazolo[4,3-a]pyridine-3(2H)-one hydrochloride",25332-39-2,[H+].[Cl-].Clc1cccc(c1)N2CCN(CCCN3N=C4C=CC=CN4C3=O)CC2,O=c1n(CCCN2CCN(c3cccc(Cl)c3)CC2)nc2ccccn12.[Cl-].[H+],3.1060000000000003,-3.272,3.185,-10.825,6.883
Isodecanol,25339-17-7,CC(C)CCCCCCCO,CC(C)CCCCCCCO,3.488,-3.122,3.996,-2.279,8.434
Decene,25339-53-1,CCCCCCCCC=C,C=CCCCCCCCC,5.081,-4.046,5.722,0.912,5.918
Heptene,25339-56-4,CCCCCC=C,C=CCCCCC,4.751,-2.6830000000000003,3.928,1.345,4.741
"Benzene, diethyl-",25340-17-4,CCc1ccccc1CC,CCc1ccccc1CC,4.313,-3.319,4.203,-1.2570000000000001,4.711
tert-Nonyl mercaptan,25360-10-5,CCCCCCC(C)(C)S,CCCCCCC(C)(C)S,4.114,-3.531,4.468,-1.4769999999999999,13.039
Diaminotoluene,25376-45-8,Cc1cccc(N)c1N,Cc1cccc(N)c1N,-0.36,-1.5019999999999998,0.687,-9.685,5.723
"2,5-Furandione, 3-(dodecenyl)dihydro-",25377-73-5,CCCCCCCCCCC=CC1CC(=O)OC1=O,CCCCCCCCCCC=CC1CC(=O)OC1=O,3.388,-3.8369999999999997,6.053,-3.7769999999999997,4.223
Octene,25377-83-7,CCCCCCC=C,C=CCCCCCC,4.893,-3.207,4.606,1.194,5.664
Dodecene,25378-22-7,CCCCCCCCCCC=C,C=CCCCCCCCCCC,5.206,-4.6419999999999995,6.9910000000000005,0.7290000000000001,6.38
"Benzenesulfonic acid, 2,2'-(1,2-ethenediyl)bis[5-amino-, sodium salt",25394-13-2,[Na+].Nc1ccc(/C=C/c2ccc(N)cc2[S]([O-])(=O)=O)c(c1)[S](O)(=O)=O,Nc1ccc(/C=C/c2ccc(N)cc2S(=O)(=O)O)c(S(=O)(=O)[O-])c1.[Na+],0.14300000000000002,-2.377,-0.433,-12.520999999999999,2.625
"Ethanol, 2-[2-[2-(tridecycloxy)ethoxy]ethoxy]-, hydrogen sulfate, sodium salt",25446-78-0,[Na+].CCCCCCCCCCCCCOCCOCCOCCO[S]([O-])(=O)=O,CCCCCCCCCCCCCOCCOCCOCCOS(=O)(=O)[O-].[Na+],3.789,-3.002,4.645,-5.058,8.921
Triisodecyl phosphorate,25448-25-3,CC(C)CCCCCCCO[P](=O)(OCCCCCCCC(C)C)OCCCCCCCC(C)C,CC(C)CCCCCCCOP(=O)(OCCCCCCCC(C)C)OCCCCCCCC(C)C,5.56,-5.027,8.24,-3.18,6.82
"Benzenesulfonic acid, tridecyl-",25496-01-9,CCCCCCCCCCCCCc1ccccc1[S](O)(=O)=O,CCCCCCCCCCCCCc1ccccc1S(=O)(=O)O,4.228,-4.59,3.706,-5.561,0.814
"9-Octadecenoic acid (9Z)-, monoester with 1,2,3-propanetriol",25496-72-4,CCCCCCCC\C=C/CCCCCCCC(=O)OCC(O)CO,CCCCCCCC/C=C\CCCCCCCC(=O)OCC(O)CO,3.826,-3.87,5.308,-5.51,6.095
"Propanol, [2-(2-methoxymethylethoxy)methylethoxy]-",25498-49-1,CCC(O)OCCCOCCCOC,CCC(O)OCCCOCCCOC,0.917,-1.224,-0.113,-6.879,16.643
"Toluene, ethyl-",25550-14-5,CCc1ccccc1C,CCc1ccccc1C,4.055,-3.031,3.744,-1.043,4.201
"1,3-Isobenzofurandione, hexahydromethyl-",25550-51-0,CC12CCCCC1C(=O)OC2=O,CC12CCCCC1C(=O)OC2=O,2.802,-2.3609999999999998,0.8590000000000001,-5.712000000000001,4.851
Di(iso-Decyl) phenyl phosphite,25550-98-5,CC(C)CCCCCCCOP(OCCCCCCCC(C)C)Oc1ccccc1,CC(C)CCCCCCCOP(OCCCCCCCC(C)C)Oc1ccccc1,4.747,-5.534,7.944,-3.4419999999999997,6.384
"Benzene, trimethyl-",25551-13-7,Cc1cccc(C)c1C,Cc1cccc(C)c1C,4.1160000000000005,-3.176,3.651,-1.126,3.975
"2-Cyclopenten-1-one, 2-pentyl-",25564-22-1,CCCCCC1=CCCC1=O,CCCCCC1=CCCC1=O,3.911,-3.0060000000000002,3.3360000000000003,-4.021,8.78
"Acrylic acid, monoester with 1,2-propanediol",25584-83-2,OCCCOC(=O)C=C,C=CC(=O)OCCCO,0.183,-1.2,0.097,-7.579,11.126
Tris(methylphenyl) phosphorate,25586-42-9,Cc1ccccc1O[P](=O)(Oc2ccccc2C)Oc3ccccc3C,Cc1ccccc1OP(=O)(Oc1ccccc1C)Oc1ccccc1C,4.037,-5.5710000000000015,5.595,-5.311,4.22
Calcium magnesium orthophosphate,25618-23-9,[Mg++].[Ca++].[O-][P]([O-])([O-])=O,O=P([O-])([O-])[O-].[Ca+2].[Mg+2],1.609,-0.556,1.035,-7.1739999999999995,10.107
"Naphthalenesulfonic acid, dinonyl-, barium salt",25619-56-1,[Ba++].CCCCCCCCCc1cc2ccccc2c(c1CCCCCCCCC)[S]([O-])(=O)=O.CCCCCCCCCc3cc4ccccc4c(c3CCCCCCCCC)[S]([O-])(=O)=O,CCCCCCCCCc1cc2ccccc2c(S(=O)(=O)[O-])c1CCCCCCCCC.CCCCCCCCCc1cc2ccccc2c(S(=O)(=O)[O-])c1CCCCCCCCC.[Ba+2],4.6160000000000005,-6.06,8.787,-3.863,7.1
"1,6-Hexanediamine, trimethyl-",25620-58-0,CC(CCCCN)C(C)(C)N,CC(CCCCN)C(C)(C)N,-3.283,-2.9760000000000004,0.205,-5.061,11.091
"Cyclododecane, hexabromo- isomers",25637-99-4,BrC1CC(Br)CC(Br)CC(Br)CC(Br)CC(Br)C1,BrC1CC(Br)CC(Br)CC(Br)CC(Br)CC(Br)C1,5.755,-4.059,3.437,-1.679,11.334
"Bisphenol, sulphonyl-",25641-61-6,Oc1ccccc1[S](=O)(=O)c2ccccc2O,O=S(=O)(c1ccccc1O)c1ccccc1O,2.012,-2.8569999999999998,2.232,-11.632,9.685
"Methanesulfonamide, N-[2-[(4-amino-3-methylphenyl)ethylamino]ethyl]-, sulfate(2:3)",25646-71-3,Cc1cc(CCNCCN[S](C)(=O)=O)ccc1N.Cc2cc(CCNCCN[S](C)(=O)=O)ccc2N.O[S](O)(=O)=O.O[S](O)(=O)=O.O[S](O)(=O)=O,Cc1cc(CCNCCNS(C)(=O)=O)ccc1N.Cc1cc(CCNCCNS(C)(=O)=O)ccc1N.O=S(=O)(O)O.O=S(=O)(O)O.O=S(=O)(O)O,-0.664,-0.353,-3.69,-11.866,6.388
"Tin, butyl-tris-isooctylmercaptoacetate",25852-70-4,[SnH4].CCCCOC(=O)C(SCCCCCC(C)C)(SCCCCCC(C)C)SCCCCCC(C)C,CCCCOC(=O)C(SCCCCCC(C)C)(SCCCCCC(C)C)SCCCCCC(C)C.[SnH4],5.4170000000000025,-5.962999999999999,8.395,-1.952,8.96
"Ferrare(4-), hexakis(cyano-.kappa.C)-, ammonium iron(3+)(1:1:1), (C6-11)-",25869-00-5,[NH4+].[Fe++].[Fe+3].[C-]#N.[C-]#N.[C-]#N.[C-]#N.[C-]#N.[C-]#N,[C-]#N.[C-]#N.[C-]#N.[C-]#N.[C-]#N.[C-]#N.[Fe+2].[Fe+3].[NH4+],-0.234,-0.426,0.677,-4.106,6.77
Turnbull's blue,25869-98-1,[K+].[Fe++].[Fe+3].[C-]#N.[C-]#N.[C-]#N.[C-]#N.[C-]#N.[C-]#N,[C-]#N.[C-]#N.[C-]#N.[C-]#N.[C-]#N.[C-]#N.[Fe+2].[Fe+3].[K+],-0.04,-0.4920000000000001,0.784,-4.242,5.913
"2-Pentenenitrile, (2Z)-",25899-50-7,CC\C=C/C#N,CC/C=C\C#N,1.224,-1.111,1.476,-4.113,4.871
Hexanol,25917-35-5,CCCCCCO,CCCCCCO,2.019,-1.311,1.999,-3.912,7.349
"2-Naphthalenesulfonic acid, 6-hydroxy-5-[(2-methoxy-5-methyl-4-sulfophenyl)azo]-, disodium salt",25956-17-6,[Na+].[Na+].COc1cc(c(C)cc1N\N=C2/C(=O)C=Cc3cc(ccc23)[S]([O-])(=O)=O)[S]([O-])(=O)=O,COc1cc(S(=O)(=O)[O-])c(C)cc1N/N=C1\C(=O)C=Cc2cc(S(=O)(=O)[O-])ccc21.[Na+].[Na+],2.018,-3.1039999999999996,2.501,-10.967,4.764
"Ethanol, 2-[2-[2-(hexyloxy)ethoxy]ethoxy]-",25961-89-1,CCCCCCOCCOCCOCCO,CCCCCCOCCOCCOCCO,2.126,-1.7280000000000002,1.152,-6.233,12.368
"Phenol, 2-(2H-benzotriazol-2-yl)-4,6-bis(1,1-dimethylpropyl)-",25973-55-1,CCC(C)(C)c1cc(n2nc3ccccc3n2)c(O)c(c1)C(C)(C)CC,CCC(C)(C)c1cc(-n2nc3ccccc3n2)c(O)c(C(C)(C)CC)c1,4.216,-5.2810000000000015,6.5120000000000005,-7.004,4.409
"Phthalic acid, 3,4,5,6-tetrabromo-, bis(2-ethylhexyl) ester",26040-51-7,CCCCC(CC)COC(=O)c1c(Br)c(Br)c(Br)c(Br)c1C(=O)OCC(CC)CCCC,CCCCC(CC)COC(=O)c1c(Br)c(Br)c(Br)c(Br)c1C(=O)OCC(CC)CCCC,5.166,-7.194,8.613999999999999,-3.6889999999999996,7.646
"S-Benzyl-O,O-diisopropyl phosphorothioate; Iprobenfos",26087-47-8,CC(C)O[P](=O)(OC(C)C)SCc1ccccc1,CC(C)OP(=O)(OC(C)C)SCc1ccccc1,4.676,-4.311,3.516,-6.087999999999999,7.909
Terphenyl,26140-60-3,c1ccc(cc1)c2ccccc2c3ccccc3,c1ccc(-c2ccccc2-c2ccccc2)cc1,3.947,-5.143,5.372999999999998,-3.3789999999999996,4.568
"2H-Isothiozol-3-one, 5-chloro-2-methyl-",26172-55-4,[H+].[Cl-].CN1SC(=CC1=O)Cl,Cn1sc(Cl)cc1=O.[Cl-].[H+],0.632,-1.6969999999999998,1.383,-8.618,3.844
Ethofumesate,26225-79-6,CCOC1Oc2ccc(O[S](C)(=O)=O)cc2C1(C)C,CCOC1Oc2ccc(OS(C)(=O)=O)cc2C1(C)C,2.829,-3.6039999999999996,2.827,-6.377000000000001,10.653
"Sorbitan, monohexadecanoate",26266-57-9,CCCCCCCCCCCCCCCC(=O)OCC(O)[C@H]1OC[C@@H](O)[C@@H]1O,CCCCCCCCCCCCCCCC(=O)OCC(O)[C@H]1OC[C@@H](O)[C@@H]1O,2.949,-3.299,4.674,-9.158999999999999,6.716
"Sorbitan, tri-(9Z)-9-octadecenoate",26266-58-0,CCCCCCCC\C=C/CCCCCCCC(=O)OC[C@H](O)[C@H]1OC[C@H](OC(=O)CCCCCCC\C=C/CCCCCCCC)[C@H]1OC(=O)CCCCCCC\C=C/CCCCCCCC,CCCCCCCC/C=C\CCCCCCCC(=O)OC[C@H](O)[C@H]1OC[C@H](OC(=O)CCCCCCC/C=C\CCCCCCCC)[C@H]1OC(=O)CCCCCCC/C=C\CCCCCCCC,5.006,-5.06,8.88,-4.5889999999999995,6.176
"N-2-(2-Heptadecyl-4,5-dihydro-imidazol-1-yl)ethyl stearate",26272-76-4,CCCCCCCCCCCCCCCCCC(=O)NCCN1CCN=C1CCCCCCCCCCCCCCCCC,CCCCCCCCCCCCCCCCCC(=O)NCCN1CCN=C1CCCCCCCCCCCCCCCCC,4.5539999999999985,-5.653,8.962,-3.66,8.686
Hexadecyl chloroformate,26272-90-2,CCCCCCCCCCCCCCCCOC(Cl)=O,CCCCCCCCCCCCCCCCOC(=O)Cl,5.2429999999999986,-5.13,8.88,-1.334,6.731
"2-Pentenenitrile, (2E)-",26294-98-4,CC/C=C/C#N,CC/C=C/C#N,1.119,-1.04,1.366,-3.7239999999999998,1.758
"1-Decanol, aluminum salt",26303-54-8,[Al+3].CCCCCCCCCC[O-].CCCCCCCCCC[O-].CCCCCCCCCC[O-],CCCCCCCCCC[O-].CCCCCCCCCC[O-].CCCCCCCCCC[O-].[Al+3],4.762,-4.012,5.1370000000000005,-0.93,10.925
"Propanenitrile, 3-[(9Z)-9-octadecenylamino]-",26351-32-6,CCCCCCCC\C=C/CCCCCCCCNCCC#N,CCCCCCCC/C=C\CCCCCCCCNCCC#N,2.821,-4.582,6.252999999999999,-3.565,7.596
"Phosphorous acid, isooctyl diphenyl ester",26401-27-4,CC(C)CCCCCOP(Oc1ccccc1)Oc2ccccc2,CC(C)CCCCCOP(Oc1ccccc1)Oc1ccccc1,4.22,-5.452999999999999,5.738,-4.643,5.346
Di(iso-tridecyl) adipate,26401-35-4,CC(C)CCCCCCCCCCOC(=O)CCCCC(=O)OCCCCCCCCCCC(C)C,CC(C)CCCCCCCCCCOC(=O)CCCCC(=O)OCCCCCCCCCCC(C)C,5.5939999999999985,-5.433,8.389,-2.005,7.612
Diphenyl tolyl phosphate,26444-49-5,Cc1ccccc1O[P](=O)(Oc2ccccc2)Oc3ccccc3,Cc1ccccc1OP(=O)(Oc1ccccc1)Oc1ccccc1,3.818,-5.435,4.66,-5.593999999999999,3.923
"Benzenesulfonic acid, dimethyl-, ammonium salt",26447-10-9,[NH4+].Cc1ccc(c(C)c1)[S]([O-])(=O)=O,Cc1ccc(S(=O)(=O)[O-])c(C)c1.[NH4+],2.305,-2.294,2.004,-6.85,10.074
[(Tolyloxy)methyl]oxirane,26447-14-3,Cc1ccccc1OCC2CO2,Cc1ccccc1OCC1CO1,3.281,-3.361,3.4930000000000003,-5.492999999999999,5.064
"Benzene, 1,1'-methylenebis(isocyanato-",26447-40-5,O=C=Nc1ccccc1Cc2ccccc2N=C=O,O=C=Nc1ccccc1Cc1ccccc1N=C=O,1.757,-3.545,3.609,-7.6370000000000005,2.074
"Benzene, 1,3-diisocyanatomethyl-",26471-62-5,O=C=NCc1cccc(CN=C=O)c1,O=C=NCc1cccc(CN=C=O)c1,-0.37,-2.113,2.184,-8.466000000000001,1.409
"4,7-Methano-1H-indene, 3a,4,7,7a-tetrahydrodimethyl-",26472-00-4,CC1(C)C=CC2C3CC(C=C3)C12,CC1(C)C=CC2C3C=CC(C3)C21,4.852,-4.617,3.285,-1.265,5.031
"6-Octen-1-ol, 3,7-dimethyl-",26489-01-0,CC(CCO)CCC=C(C)C,CC(C)=CCCC(C)CCO,3.074,-2.735,3.622,-2.655,10.711
"Phenol, nonyl-, phosphite (3:1)",26523-78-4,CCCCCCCCCc1ccccc1O.CCCCCCCCCc2ccccc2O.CCCCCCCCCc3ccccc3O.OP(O)O,CCCCCCCCCc1ccccc1O.CCCCCCCCCc1ccccc1O.CCCCCCCCCc1ccccc1O.OP(O)O,3.198,-3.951,3.751,-5.119,7.377
Isodecyl diphenyl phosphite,26544-23-0,CC(C)CCCCCCCOP(Oc1ccccc1)Oc2ccccc2,CC(C)CCCCCCCOP(Oc1ccccc1)Oc1ccccc1,4.259,-5.6679999999999975,6.495,-4.325,5.421
"2,5-Furandione, dihydro-3-(tetrapropenyl)-",26544-38-7,CC(C)CC(C)CC(C)\C=C(/C)C1CC(=O)OC1=O,C/C(=C\C(C)CC(C)CC(C)C)C1CC(=O)OC1=O,2.867,-3.8810000000000002,4.698,-3.424,6.802
"Zinc, bis[O-(2-ethylhexyl) O-(2-methylpropyl) phosphorodithioato-,kappa.S,.",26566-95-0,[Zn++].CCCCC(CC)CO[P]([S-])(=S)OCC(C)C.CCCCC(CC)CO[P]([S-])(=S)OCC(C)C,CCCCC(CC)COP(=S)([S-])OCC(C)C.CCCCC(CC)COP(=S)([S-])OCC(C)C.[Zn+2],5.207999999999998,-4.359,6.369,-3.139,4.505
cresolsulphonic acid,26590-31-8,Cc1c(O)cccc1[S](O)(=O)=O,Cc1c(O)cccc1S(=O)(=O)O,0.948,-1.146,-1.963,-11.972999999999999,3.301
Sodium azide  (Na(N3)),26628-22-8,[Na+].[N-]=[N+]=[N-],[N-]=[N+]=[N-].[Na+],-1.436,-0.531,1.72,-5.89,3.899
Isooctane,26635-64-3,CCCCCC(C)C,CCCCCC(C)C,4.849,-3.162,4.681,2.154,7.282
"Tin, dimethyl-bis-isooctylmercaptoacetate",26636-01-1,[Sn+4].CC(C)CCCCCSC(C)([S](C)CCCCCC(C)C)C([O-])=O.CC(C)CCCCCSC(C)([S](C)CCCCCC(C)C)C([O-])=O.CC(C)CCCCCSC(C)([S](C)CCCCCC(C)C)C([O-])=O.CC(C)CCCCCSC(C)([S](C)CCCCCC(C)C)C([O-])=O,CC(C)CCCCCSC(C)(C(=O)[O-])[S](C)CCCCCC(C)C.CC(C)CCCCCSC(C)(C(=O)[O-])[S](C)CCCCCC(C)C.CC(C)CCCCCSC(C)(C(=O)[O-])[S](C)CCCCCC(C)C.CC(C)CCCCCSC(C)(C(=O)[O-])[S](C)CCCCCC(C)C.[Sn+4],4.686,-5.37,6.903,-2.865,10.097
"2,4,8,10-Tetraoxa-3,9-diphosphaspiro[5.5]undecane, 3,9-bis[2,4-bis(1,1-dimethylethyl)phenoxy]-",26741-53-7,CC(C)(C)c1ccc(OP2OCC3(CO2)COP(OC3)Oc4ccc(cc4C(C)(C)C)C(C)(C)C)c(c1)C(C)(C)C,CC(C)(C)c1ccc(OP2OCC3(CO2)COP(Oc2ccc(C(C)(C)C)cc2C(C)(C)C)OC3)c(C(C)(C)C)c1,5.088,-4.294,4.466,-5.739,5.161
"Neodecaneperoxoic acid, 1,1-dimethylethyl ester",26748-41-4,CC(C)(C)CCCCCC(=O)OOC(C)(C)C,CC(C)(C)CCCCCC(=O)OOC(C)(C)C,5.75,-3.458,5.529,-3.2430000000000003,7.597
"Neodecaneperoxoic acid, 1-methyl-1-phenylethyl ester",26748-47-0,CC(C)(C)CCCCCC(=O)OOC(C)(C)c1ccccc1,CC(C)(C)CCCCCC(=O)OOC(C)(C)c1ccccc1,4.8210000000000015,-4.523,6.087999999999999,-3.7960000000000003,5.284
Bis(vinylsulphonylmethyl) ether,26750-50-5,C=C[S](=O)(=O)COC[S](=O)(=O)C=C,C=CS(=O)(=O)COCS(=O)(=O)C=C,-0.034,-0.484,-1.4169999999999998,-11.357000000000001,6.298
"Butene, 2-methyl",26760-64-5,CCC(C)=C,C=C(C)CC,2.825,-1.841,2.839,0.98,8.432
Di(isodecyl) phthalate,26761-40-0,CC(C)CCCCCCCOC(=O)c1ccccc1C(=O)OCCCCCCCC(C)C,CC(C)CCCCCCCOC(=O)c1ccccc1C(=O)OCCCCCCCC(C)C,5.209,-6.053,8.401,-3.221,6.994
"1,2-Dihydro-2,2,4-trimethylquinoline polymer",26780-96-1,CC1=CC(C)(C)Nc2ccccc12,CC1=CC(C)(C)Nc2ccccc21,3.143,-3.734,3.611,-5.375,6.6
"Benzenesulfonic acid, dodecyl-, compd. with 2-aminoethanol (1:1)",26836-07-7,CCCCCCCCCCCCc1ccccc1[S](O)(=O)=O.NCCO,CCCCCCCCCCCCc1ccccc1S(=O)(=O)O.NCCO,1.32,-3.273,0.73,-6.89,4.65
Isononanoic acid,26896-18-4,CC(C)CCCCCC(O)=O,CC(C)CCCCCC(=O)O,1.036,-2.418,2.625,-3.958,5.442
Neodecanoic acid,26896-20-8,CC(C)(C)CCCCCC(O)=O,CC(C)(C)CCCCCC(=O)O,1.383,-2.6310000000000002,2.935,-3.742,5.183
"Tricyclo[5.2.1.0'2,7]decane-4,8-dimethanol",26896-48-0,OCC1CCC2C3CC(CC3CO)C12,OCC1CC2CC1C1CCC(CO)C21,2.649,-3.947,1.492,-4.982,10.041