chemical_name,cas,smiles,canonical_smiles,log_p,log_s,kow,water-energy,pka
"1,3,5-Triazine-2,4-diamine, 6-phenyl-",91-76-9,Nc1nc(N)nc(n1)c2ccccc2,Nc1nc(N)nc(-c2ccccc2)n1,1.062,-2.258,1.281,-10.963,5.549
"3,3'-Dichlorobenzidine",91-94-1,Nc1ccc(cc1Cl)c2ccc(N)c(Cl)c2,Nc1ccc(-c2ccc(N)c(Cl)c2)cc1Cl,2.775,-4.069,3.435,-8.572000000000001,1.673
"Butanamide, N-(2-methoxyphenyl)-3-oxo-",92-15-9,COc1ccccc1NC(=O)CC(C)=O,COc1ccccc1NC(=O)CC(C)=O,0.755,-2.231,0.899,-10.009,8.704
"1,1'-Biphenyl",92-52-4,c1ccc(cc1)c2ccccc2,c1ccc(-c2ccccc2)cc1,3.716,-3.99,4.093,-2.573,3.48
"Aniline, 3,4-dichloro-",95-76-1,Nc1ccc(Cl)c(Cl)c1,Nc1ccc(Cl)c(Cl)c1,2.653,-2.8539999999999996,2.633,-6.3229999999999995,2.168
"Toluene, 2,4-diamine",95-80-7,Cc1ccc(N)cc1N,Cc1ccc(N)cc1N,-0.295,-1.507,0.287,-10.247,7.022
"Phenol, 2,5-dimethyl-",95-87-4,Cc1ccc(C)c(O)c1,Cc1ccc(C)c(O)c1,3.138,-2.516,2.567,-5.773,10.342
"Benzene, 1,2,4,5-tetramethyl-",95-93-2,Cc1cc(C)c(C)cc1C,Cc1cc(C)c(C)cc1C,4.538,-3.694,4.301,-1.501,4.658
"1,4-Dioxane-2,5-dione, 3,6-dimethyl-",95-96-5,CC1OC(=O)C(C)OC1=O,CC1OC(=O)C(C)OC1=O,-0.77,-0.369,0.565,-6.761,3.422
"2-Propenoic acid, 2-methyl-, 2-propenyl ester",96-05-9,CC(=C)C(=O)OCC=C,C=CCOC(=O)C(=C)C,2.678,-2.1959999999999997,1.897,-4.77,7.207
"Aluminium, chlorodiethyl-",96-10-6,CC[Al](Cl)CC,CC[Al](Cl)CC,2.854,-1.681,2.521,-0.6559999999999999,5.04
"Butanal, 2-methyl-",96-17-3,CCC(C)C=O,CCC(C)C=O,1.246,-1.3159999999999998,1.254,-2.048,12.45
"Propane, 1,2,3-trichloro-",96-18-4,ClCC(Cl)CCl,ClCC(Cl)CCl,5.026,-2.144,2.184,-2.161,11.836
3-Pentanone,96-22-0,CCC(=O)CC,CCC(=O)CC,1.179,-0.731,0.972,-3.431,12.574
"1,2-Propanediol, 3-chloro-",96-24-2,OCC(O)CCl,OCC(O)CCl,-0.835,0.21100000000000002,-0.505,-11.459000000000001,12.704
"2-Butanone, oxime",96-29-7,CCC(C)=NO,CCC(C)=NO,-0.313,-0.595,1.342,-5.763999999999999,9.7
"Urea, 1,3-dimethyl-",96-31-1,CNC(=O)NC,CNC(=O)NC,-2.78,0.524,-0.688,-12.975,1.973
Methyl acrylate,96-33-3,COC(=O)C=C,C=CC(=O)OC,-0.071,-0.664,0.982,-4.822,5.431
Methyl chloroacetate,96-34-4,COC(=O)CCl,COC(=O)CCl,-0.011,-0.377,0.234,-4.5969999999999995,6.209
"2(3H)-Furanone, dihydro-",96-48-0,O=C1CCCO1,O=C1CCCO1,-0.361,-0.4920000000000001,-0.591,-5.608,5.499
"1,3-Dioxolan-2-one",96-49-1,O=C1OCCO1,O=C1OCCO1,-1.203,-0.344,-0.638,-5.15,3.918
"Phenol, 4,4'-thiobis[2-(1,1-dimethylethyl)-5-methyl]-",96-69-5,Cc1cc(O)c(cc1Sc2cc(c(O)cc2C)C(C)(C)C)C(C)(C)C,Cc1cc(O)c(C(C)(C)C)cc1Sc1cc(C(C)(C)C)c(O)cc1C,5.276,-5.4170000000000025,5.62,-5.564,10.535
"Phenol, 2,4-di-tert-butyl-",96-76-4,CC(C)(C)c1ccc(O)c(c1)C(C)(C)C,CC(C)(C)c1ccc(O)c(C(C)(C)C)c1,5.483,-4.348,4.765,-4.006,10.119
"Benzene, 1-chloro-2,4-dinitro-",97-00-7,[O-][N+](=O)c1ccc(Cl)c(c1)[N+]([O-])=O,O=[N+]([O-])c1ccc(Cl)c([N+](=O)[O-])c1,2.371,-3.0069999999999997,2.334,-6.075,4.501
"Aniline, 2,4-dinitro-",97-02-9,Nc1ccc(cc1[N+]([O-])=O)[N+]([O-])=O,Nc1ccc([N+](=O)[O-])cc1[N+](=O)[O-],0.665,-2.153,1.824,-8.787,1.321
"Acetoacetanilide, 2',4'-dimethyl-",97-36-9,CC(=O)CC(=O)Nc1ccc(C)cc1C,CC(=O)CC(=O)Nc1ccc(C)cc1C,2.077,-2.699,1.592,-9.437000000000001,8.188
"Guanidine, N,N'-bis(2-methylphenyl)-",97-39-2,Cc1ccccc1NC(=N)Nc2ccccc2C,Cc1ccccc1NC(=N)Nc1ccccc1C,1.556,-3.773,2.377,-10.311,8.554
"Aniline, 2-methoxy-4-nitro-",97-52-9,COc1cc(ccc1N)[N+]([O-])=O,COc1cc([N+](=O)[O-])ccc1N,1.002,-2.0709999999999997,1.705,-8.613,2.504
Ethyl methacrylate,97-63-2,CCOC(=O)C(C)=C,C=C(C)C(=O)OCC,2.655,-1.735,1.927,-4.437,7.437
Ethyl 2-hydroxypropanoate,97-64-3,CCOC(=O)C(C)O,CCOC(=O)C(C)O,0.387,-0.4370000000000001,0.219,-8.617,7.886
"Butanedioic acid, methylene-",97-65-4,OC(=O)CC(=C)C(O)=O,C=C(CC(=O)O)C(=O)O,-4.605,-0.445,-0.35700000000000004,-11.48,4.656
"Propanoic acid, 2-methyl-, anhydride",97-72-3,CC(C)C(=O)OC(=O)C(C)C,CC(C)C(=O)OC(=O)C(C)C,2.765,-1.896,2.654,-5.186,6.701
"Thiodicarbonic diamide, tetramrthyl-",97-74-5,CN(C)C(=S)SC(=S)N(C)C,CN(C)C(=S)SC(=S)N(C)C,0.271,-1.854,1.67,-7.465,2.155
Disulfiram,97-77-8,CCN(CC)C(=S)SSC(=S)N(CC)CC,CCN(CC)C(=S)SSC(=S)N(CC)CC,2.74,-3.8560000000000003,3.562,-5.351,5.278
2-Methylpropyl  2-methyl-2-propanoate,97-85-8,CC(C)COC(=O)C(C)C,CC(C)COC(=O)C(C)C,4.739,-2.184,2.842,-2.873,12.282
2-Methylpropyl  2-methyl-2-propenoate,97-86-9,CC(C)COC(=O)C(C)=C,C=C(C)C(=O)OCC(C)C,4.586,-2.565,2.597,-3.696,7.671
"Phenol, 3,4-dimethyl-",95-65-8,Cc1ccc(O)cc1C,Cc1ccc(O)cc1C,3.361,-2.519,2.254,-6.093999999999999,10.249
"2,4-Xylidine",95-68-1,Cc1ccc(N)c(C)c1,Cc1ccc(N)c(C)c1,1.604,-2.334,1.917,-5.767,4.726
"Toluene, 2,4-dichloro-",95-73-8,Cc1ccc(Cl)cc1Cl,Cc1ccc(Cl)cc1Cl,4.549,-3.9589999999999996,4.093,-1.493,5.611
"Aniline, 3-chloro-4-methyl-",95-74-9,Cc1ccc(N)cc1Cl,Cc1ccc(N)cc1Cl,2.4,-2.513,2.34,-6.147,4.454
2-Furanmethanol,98-00-0,OCc1occc1,OCc1ccco1,0.26,-0.8490000000000001,0.16899999999999998,-9.691,4.356
2-Furaldehyde,98-01-1,O=Cc1occc1,O=Cc1ccco1,1.069,-1.431,0.618,-8.283999999999999,4.741
"Benzene, (trichloromethyl)-",98-07-7,ClC(Cl)(Cl)c1ccccc1,ClC(Cl)(Cl)c1ccccc1,4.468,-4.178999999999999,3.377,-1.244,11.144
"Benzene, (trifluoromethyl)-",98-08-8,FC(F)(F)c1ccccc1,FC(F)(F)c1ccccc1,4.081,-3.4619999999999997,2.847,0.31,4.398
Benzenesulfonyl chloride,98-09-9,Cl[S](=O)(=O)c1ccccc1,O=S(=O)(Cl)c1ccccc1,1.449,-1.9680000000000002,1.797,-6.547000000000001,0.92
Benzenesulfonic acid,98-11-3,O[S](=O)(=O)c1ccccc1,O=S(=O)(O)c1ccccc1,0.84,-1.003,-2.658,-11.123,-7.463
"Silane, trichlorophenyl-",98-13-5,Cl[Si](Cl)(Cl)c1ccccc1,Cl[Si](Cl)(Cl)c1ccccc1,3.973,-4.373,3.373,-1.615,9.661
"Aniline, 3-(trifluoromethyl)-",98-16-8,Nc1cccc(c1)C(F)(F)F,Nc1cccc(C(F)(F)F)c1,2.202,-2.977,2.048,-3.611,2.666
"1,2-Benzenediol, 4-(1,1-dimethylethyl)-",98-29-3,CC(C)(C)c1ccc(O)c(O)c1,CC(C)(C)c1ccc(O)c(O)c1,3.785,-3.085,2.769,-7.78,8.373
"Benzene, 1-nitro-3-(trifluoromethyl)-",98-46-4,[O-][N+](=O)c1cccc(c1)C(F)(F)F,O=[N+]([O-])c1cccc(C(F)(F)F)c1,3.914,-3.497,2.694,-2.548,6.587
"Toluene, 4-tert-butyl-",98-51-1,Cc1ccc(cc1)C(C)(C)C,Cc1ccc(C(C)(C)C)cc1,5.306,-4.003,4.975,-1.4,4.241
"Cyclohexanol, 4-tert-butyl-",98-52-2,CC(C)(C)C1CCC(O)CC1,CC(C)(C)C1CCC(O)CC1,2.459,-2.533,3.505,-2.929,9.227
"Phenol, 4-tert-butyl-",98-54-4,CC(C)(C)c1ccc(O)cc1,CC(C)(C)c1ccc(O)cc1,4.564,-3.325,3.442,-5.312,9.234
p-Menth-1-en-8-ol,98-55-5,CC1=CCC(CC1)C(C)(C)O,CC1=CCC(C(C)(C)O)CC1,2.148,-2.2569999999999997,3.318,-4.346,12.187
"Benzene, 1-chloro-4-(trifluoromethyl)-",98-56-6,FC(F)(F)c1ccc(Cl)cc1,FC(F)(F)c1ccc(Cl)cc1,4.532,-4.155,3.628,-0.204,7.362
"Benzenesulfonyl chloride, 4-methyl-",98-59-9,Cc1ccc(cc1)[S](Cl)(=O)=O,Cc1ccc(S(=O)(=O)Cl)cc1,2.106,-2.323,2.386,-6.572,1.595
4-hydroxybenzenesulphonic acid,98-67-9,Oc1ccc(cc1)[S](O)(=O)=O,O=S(=O)(O)c1ccc(O)cc1,0.964,-0.9229999999999999,-2.416,-13.672,6.028
"Benzoic acid, 4-tert-butyl-",98-73-7,CC(C)(C)c1ccc(cc1)C(O)=O,CC(C)(C)c1ccc(C(=O)O)cc1,1.135,-3.282,3.926,-6.564,3.826
Cumene,98-82-8,CC(C)c1ccccc1,CC(C)c1ccccc1,4.383,-3.1630000000000003,3.759,-0.97,3.485
"Benzene, (1-methylethenyl)-",98-83-9,CC(=C)c1ccccc1,C=C(C)c1ccccc1,3.2230000000000003,-3.193,3.397,-1.784,5.995
Acetophenone,98-86-2,CC(=O)c1ccccc1,CC(=O)c1ccccc1,1.94,-2.06,1.649,-4.831,11.33
"Benzene, (dichloromethyl)-",98-87-3,ClC(Cl)c1ccccc1,ClC(Cl)c1ccccc1,4.189,-3.4610000000000003,2.903,-2.286,5.144
Benzoyl chloride,98-88-4,ClC(=O)c1ccccc1,O=C(Cl)c1ccccc1,2.688,-2.483,2.339,-4.375,1.403
Cyclohexanecarboxylic acid,98-89-5,OC(=O)C1CCCCC1,O=C(O)C1CCCCC1,0.7170000000000001,-1.7630000000000001,1.431,-6.422000000000001,4.782
Nicotinamide,98-92-0,NC(=O)c1cccnc1,NC(=O)c1cccnc1,0.112,-1.0070000000000001,-0.264,-11.82,9.386
"Cyclohexylamine, N,N-dimethyl-",98-94-2,CN(C)C1CCCCC1,CN(C)C1CCCCC1,-0.754,-2.35,2.775,-3.333,10.072
"Benzene, nitro-",98-95-3,[O-][N+](=O)c1ccccc1,O=[N+]([O-])c1ccccc1,2.716,-2.195,1.836,-4.376,4.521
"Benzoic acid, 3-methyl-",99-04-7,Cc1cccc(c1)C(O)=O,Cc1cccc(C(=O)O)c1,-0.448,-2.251,2.2230000000000003,-7.7139999999999995,3.564
"Toluene, 3-nitro-",99-08-1,Cc1cccc(c1)[N+]([O-])=O,Cc1cccc([N+](=O)[O-])c1,3.652,-2.615,2.506,-4.38,4.648
"Aniline, 3-nitro-",99-09-2,Nc1cccc(c1)[N+]([O-])=O,Nc1cccc([N+](=O)[O-])c1,0.616,-1.8219999999999998,1.204,-8.557,2.713
"o-Xylene, 4-nitro-",99-51-4,Cc1ccc(cc1C)[N+]([O-])=O,Cc1ccc([N+](=O)[O-])cc1C,4.065,-2.9360000000000004,3.057,-4.408,3.758
"4-Nitrobenzene, 1,2-dichloro-",99-54-7,[O-][N+](=O)c1ccc(Cl)c(Cl)c1,O=[N+]([O-])c1ccc(Cl)c(Cl)c1,4.276,-3.554,3.196,-4.691,4.657
Butyl methacrylate,97-88-1,CCCCOC(=O)C(C)=C,C=C(C)C(=O)OCCCC,4.148,-2.7110000000000003,2.704,-3.987,7.93
"1,2-ethanediyl 2-methyl-2-propenoate",97-90-5,CC(=C)C(=O)OCCOC(=O)C(C)=C,C=C(C)C(=O)OCCOC(=O)C(=C)C,2.39,-2.707,2.249,-6.354,8.406
"Aluminium, triethyl-",97-93-8,CC[Al](CC)CC,CC[Al](CC)CC,1.115,-2.062,2.8310000000000004,-0.046,10.011
"2-Furanmethanol, tetrahydro-",97-99-4,OCC1CCCO1,OCC1CCCO1,-0.344,-0.348,-0.6920000000000001,-7.784,9.099
Methyl 4-toluate,99-75-2,COC(=O)c1ccc(C)cc1,COC(=O)c1ccc(C)cc1,3.771,-2.925,2.728,-5.0089999999999995,2.142
p-Cymene,99-87-6,CC(C)c1ccc(C)cc1,Cc1ccc(C(C)C)cc1,4.794,-3.6289999999999996,4.351,-1.479,3.556
"Aniline, 4-(1-methylethyl)-",99-88-7,CC(C)c1ccc(N)cc1,CC(C)c1ccc(N)cc1,2.761,-2.63,2.335,-5.612,4.668
"Benzoic acid, 4-methyl-",99-94-5,Cc1ccc(cc1)C(O)=O,Cc1ccc(C(=O)O)cc1,-0.42,-2.286,2.349,-7.8839999999999995,3.637
"Benzoic acid, 4-hydroxy-",99-96-7,OC(=O)c1ccc(O)cc1,O=C(O)c1ccc(O)cc1,-0.16,-1.682,1.669,-11.700999999999999,4.311
"Benzenamine, N,N,4-trimethyl-",99-97-8,CN(C)c1ccc(C)cc1,Cc1ccc(N(C)C)cc1,3.322,-2.521,2.812,-4.715,4.931
"Toluene, 4-nitro-",99-99-0,Cc1ccc(cc1)[N+]([O-])=O,Cc1ccc([N+](=O)[O-])cc1,3.661,-2.611,2.568,-4.635,4.069
"Benzene, 1-chloro-4-nitro-",100-00-5,[O-][N+](=O)c1ccc(Cl)cc1,O=[N+]([O-])c1ccc(Cl)cc1,3.952,-2.865,2.56,-4.671,6.522
"Aniline, 4-nitro-",100-01-6,Nc1ccc(cc1)[N+]([O-])=O,Nc1ccc([N+](=O)[O-])cc1,0.948,-1.7819999999999998,1.31,-8.898,2.324
"Phenol, 4-nitro-",100-02-7,Oc1ccc(cc1)[N+]([O-])=O,O=[N+]([O-])c1ccc(O)cc1,2.065,-1.994,1.786,-8.982999999999999,6.73
"Benzene, p-diisopropyl-",100-18-5,CC(C)c1ccc(cc1)C(C)C,CC(C)c1ccc(C(C)C)cc1,5.3420000000000005,-4.093,5.365,-1.7109999999999999,4.227
Terephthaloyl dichloride,100-20-9,ClC(=O)c1ccc(cc1)C(Cl)=O,O=C(Cl)c1ccc(C(=O)Cl)cc1,2.437,-2.952,2.7310000000000003,-6.986000000000001,2.83
Terephthalic acid,100-21-0,OC(=O)c1ccc(cc1)C(O)=O,O=C(O)c1ccc(C(=O)O)cc1,-1.59,-1.8619999999999999,2.005,-11.761,3.576
"Nitrobenzene, 4-ethoxy-",100-29-8,CCOc1ccc(cc1)[N+]([O-])=O,CCOc1ccc([N+](=O)[O-])cc1,3.704,-2.9130000000000003,2.481,-5.452000000000001,5.222
"Ethanol, 2-(diethylamino)-",100-37-8,CCN(CC)CCO,CCN(CC)CCO,-2.672,-0.746,0.509,-7.478,9.679
"Cyclohexene, 4-vinyl-",100-40-3,C=CC1CCC=CC1,C=CC1CC=CCC1,3.518,-2.592,3.852,0.526,4.159
"Benzene, ethyl-",100-41-4,CCc1ccccc1,CCc1ccccc1,3.585,-2.67,3.298,-1.0090000000000001,3.852
Styrene,100-42-5,C=Cc1ccccc1,C=Cc1ccccc1,2.653,-2.867,2.766,-1.632,3.12
Benzyl chloride,100-44-7,ClCc1ccccc1,ClCc1ccccc1,3.736,-2.716,2.553,-2.052,3.848
Benzylamine,100-46-9,NCc1ccccc1,NCc1ccccc1,-1.08,-2.102,1.07,-5.466,9.498
Benzonitrile,100-47-0,N#Cc1ccccc1,N#Cc1ccccc1,1.862,-1.874,1.457,-4.062,2.746
4-Pyridinecarbonitrile,100-48-1,N#Cc1ccncc1,N#Cc1ccncc1,0.197,-1.276,0.335,-7.499,2.855
3-Cyclohexene-1-carboxaldehyde,100-50-5,O=CC1CCC=CC1,O=CC1CC=CCC1,1.827,-1.463,1.533,-3.068,6.977
Benzenemethanol,100-51-6,OCc1ccccc1,OCc1ccccc1,1.163,-1.584,1.161,-6.3229999999999995,1.646
Benzaldehyde,100-52-7,O=Cc1ccccc1,O=Cc1ccccc1,1.588,-2.079,1.527,-4.41,2.068
Benzenemethanethiol,100-53-8,SCc1ccccc1,SCc1ccccc1,2.325,-2.488,2.576,-3.998,6.02
Nicotinonitrile,100-54-9,N#Cc1cccnc1,N#Cc1cccnc1,0.25,-1.11,0.219,-7.502000000000001,2.521
Phenylhydrazine,100-63-0,NNc1ccccc1,NNc1ccccc1,-1.119,-1.758,0.97,-9.419,5.379
"Cyclohexanone, oxime",100-64-1,ON=C1CCCCC1,ON=C1CCCCC1,1.4480000000000002,-1.454,1.435,-6.587999999999999,9.121
"Pyridine, 2-vinyl-",100-69-6,C=Cc1ccccn1,C=Cc1ccccn1,1.31,-2.15,1.536,-4.922,5.271
2-Pyridinecarbonitrile,100-70-9,N#Cc1ccccn1,N#Cc1ccccn1,0.711,-1.225,0.424,-6.856,0.594
"Morpholine, 4-ethyl-",100-74-3,CCN1CCOCC1,CCN1CCOCC1,-0.755,-0.674,0.514,-6.57,7.361
"Benzene, 1,3-diiso-propyl-",99-62-7,CC(C)c1cccc(c1)C(C)C,CC(C)c1cccc(C(C)C)c1,5.211,-4.066,5.069,-1.63,4.433
Isophthaloyl chloride,99-63-8,ClC(=O)c1cccc(c1)C(Cl)=O,O=C(Cl)c1cccc(C(=O)Cl)c1,2.372,-2.938,2.659,-6.781000000000001,1.818
"Benzene, m-dinitro-",99-65-0,[O-][N+](=O)c1cccc(c1)[N+]([O-])=O,O=[N+]([O-])c1cccc([N+](=O)[O-])c1,2.346,-2.3680000000000003,1.827,-6.4510000000000005,5.077
"Phenol, 4-(1-methylpropyl)-",99-71-8,CCC(C)c1ccc(O)cc1,CCC(C)c1ccc(O)cc1,3.691,-3.4819999999999998,3.448,-4.985,9.881
"Benzenesulfonic acid, 3-[(ethylphenylamino)methyl]-",101-11-1,CCN(Cc1cccc(c1)[S](O)(=O)=O)c2ccccc2,CCN(Cc1cccc(S(=O)(=O)O)c1)c1ccccc1,2.154,-3.201,-0.255,-9.592,-0.981
"4,4'-Methylenebis-(2-chlorobenzenamine)",101-14-4,Nc1ccc(Cc2ccc(N)c(Cl)c2)cc1Cl,Nc1ccc(Cc2ccc(N)c(Cl)c2)cc1Cl,2.729,-3.91,3.886,-8.197000000000001,2.488
"Urea, N-(4-chlorophenyl)-N'-(3,4-dichlorophenyl)-",101-20-2,Clc1ccc(NC(=O)Nc2ccc(Cl)c(Cl)c2)cc1,O=C(Nc1ccc(Cl)cc1)Nc1ccc(Cl)c(Cl)c1,4.539,-4.633,5.087,-9.946,6.403
"Bicyclo[3.3.1]nonane, 3,7-dinitroso-1,3,5,7-tetraaza-",101-25-7,O=NN1CN2CN(C1)CN(C2)N=O,O=NN1CN2CN(C1)CN(N=O)C2,-0.792,-0.222,-1.432,-15.564,3.372
"Ricinolein, tri-, triacetate",101-34-8,CCCCCCC(C/C=C/CCCCCCCC(=O)OCC(COC(=O)CCCCCCC\C=C\CC(CCCCCC)OC(C)=O)OC(=O)CCCCCCC\C=C\CC(CCCCCC)OC(C)=O)OC(C)=O,CCCCCCC(C/C=C/CCCCCCCC(=O)OCC(COC(=O)CCCCCCC/C=C/CC(CCCCCC)OC(C)=O)OC(=O)CCCCCCC/C=C/CC(CCCCCC)OC(C)=O)OC(C)=O,4.914,-5.186,7.9529999999999985,-3.66,8.274
"Cinnamaldehyde, alpha-methyl-",101-39-3,CC(C=O)=Cc1ccccc1,CC(C=O)=Cc1ccccc1,2.438,-2.864,2.349,-4.569,4.68
cyclohexyl methacrylate,101-43-9,CC(=C)C(=O)OC1CCCCC1,C=C(C)C(=O)OC1CCCCC1,4.634,-3.361,3.373,-3.9339999999999997,8.332
"p-Phenylenediamine, N-phenyl-",101-54-2,Nc1ccc(Nc2ccccc2)cc1,Nc1ccc(Nc2ccccc2)cc1,2.404,-3.312,2.853,-9.275,3.071
"Diphenylamine, 4,4'-dioctyl-",101-67-7,CCCCCCCCc1ccc(Nc2ccc(CCCCCCCC)cc2)cc1,CCCCCCCCc1ccc(Nc2ccc(CCCCCCCC)cc2)cc1,4.508,-5.992999999999999,9.319,-3.9330000000000003,3.991
"Diphenylmethane diisocyanate(4,4'-M.D.I.)",101-68-8,O=C=Nc1ccc(Cc2ccc(cc2)N=C=O)cc1,O=C=Nc1ccc(Cc2ccc(N=C=O)cc2)cc1,2.028,-3.516,4.173,-8.283,3.982
"p-Phenylenediamine, N-(1-methylethyl)-N'-phenyl-",101-72-4,CC(C)Nc1ccc(Nc2ccccc2)cc1,CC(C)Nc1ccc(Nc2ccccc2)cc1,3.391,-4.251,4.42,-8.059,4.093
"Aniline, 4,4'-methylenebis-",101-77-9,Nc1ccc(Cc2ccc(N)cc2)cc1,Nc1ccc(Cc2ccc(N)cc2)cc1,1.489,-2.957,1.54,-8.586,4.378
"Aniline, 4,4'-oxydi-",101-80-4,Nc1ccc(Oc2ccc(N)cc2)cc1,Nc1ccc(Oc2ccc(N)cc2)cc1,1.655,-3.287,1.442,-9.334,4.197
Dicyclohexylamine,101-83-7,C1CCC(CC1)NC2CCCCC2,C1CCC(NC2CCCCC2)CC1,0.53,-3.463,3.04,-3.694,9.93
Diphenyl ether,101-84-8,O(c1ccccc1)c2ccccc2,c1ccc(Oc2ccccc2)cc1,3.759,-4.255,3.863,-3.3160000000000003,3.219
"Cinnamaldehyde, alpha-hexyl-",101-86-0,CCCCCCC(C=O)=Cc1ccccc1,CCCCCCC(C=O)=Cc1ccccc1,3.818,-4.588,4.879,-3.596,4.69
"p-Phenylenediamine, N,N'-di-sec-butyl-",101-96-2,CCC(C)Nc1ccc(NC(C)CC)cc1,CCC(C)Nc1ccc(NC(C)CC)cc1,2.827,-4.194,4.261,-6.499,8.442
Acetoacetanilide,102-01-2,CC(=O)CC(=O)Nc1ccccc1,CC(=O)CC(=O)Nc1ccccc1,0.755,-2.074,0.852,-10.164,8.7
"Guanidine, 1,3-diphenyl-",102-06-7,N=C(Nc1ccccc1)Nc2ccccc2,N=C(Nc1ccccc1)Nc1ccccc1,1.006,-3.488,1.962,-11.103,9.261
Diphenyl carbonate,102-09-0,O=C(Oc1ccccc1)Oc2ccccc2,O=C(Oc1ccccc1)Oc1ccccc1,3.507,-4.288,3.3480000000000003,-4.4430000000000005,3.369
"m-Toluidine, N-ethyl-",102-27-2,CCNc1cccc(C)c1,CCNc1cccc(C)c1,2.898,-2.98,2.685,-5.221,4.658
"3,4-Dichlorophenyl isocyanate",102-36-3,Clc1ccc(cc1Cl)N=C=O,O=C=Nc1ccc(Cl)c(Cl)c1,3.194,-3.3789999999999996,3.489,-6.398,4.217
"2-Propanol, 1,1',1'',1'''-(1,2-ethanediyldinitrilo)tetrakis-",102-60-3,CC(O)CN(CCN(CC(C)O)CC(C)O)CC(C)O,CC(O)CN(CCN(CC(C)O)CC(C)O)CC(C)O,-1.127,-1.193,-0.433,-11.187999999999999,8.706
Triethanolamine,102-71-6,OCCN(CCO)CCO,OCCN(CCO)CCO,-2.005,0.027000000000000003,-1.304,-11.607999999999999,7.733
"Acetin, tri-",102-76-1,CC(=O)OCC(COC(C)=O)OC(C)=O,CC(=O)OCC(COC(C)=O)OC(C)=O,-0.462,-1.45,-0.008,-6.36,12.378
"Benzothiazole, 2-(morpholinothio)-",102-77-2,C1CN(CCO1)Sc2sc3ccccc3n2,c1ccc2sc(SN3CCOCC3)nc2c1,3.446,-3.585,2.742,-7.605,3.647
Tributylamine,102-82-9,CCCCN(CCCC)CCCC,CCCCN(CCCC)CCCC,2.455,-3.8089999999999997,4.222,-3.318,10.611
"Glycine, N-phenyl-",103-01-5,OC(=O)CNc1ccccc1,O=C(O)CNc1ccccc1,-1.711,-1.507,0.514,-10.267000000000001,4.306
2-Ethylhexyl acetate,103-09-3,CCCCC(CC)COC(C)=O,CCCCC(CC)COC(C)=O,4.327,-2.938,3.534,-1.5419999999999998,9.251
2-Ethylhexyl acrylate,103-11-7,CCCCC(CC)COC(=O)C=C,C=CC(=O)OCC(CC)CCCC,4.456,-3.721,4.2780000000000005,-2.3280000000000003,7.979
Bis(2-ethylhexyl) adipate,103-23-1,CCCCC(CC)COC(=O)CCCCC(=O)OCC(CC)CCCC,CCCCC(CC)COC(=O)CCCCC(=O)OCC(CC)CCCC,5.586,-4.585,5.839,-2.354,6.556
Bis-(2-Ethylhexyl) nonanedioate,103-24-2,CCCCC(CC)COC(=O)CCCCCCCC(=O)OCC(CC)CCCC,CCCCC(CC)COC(=O)CCCCCCCC(=O)OCC(CC)CCCC,5.813,-4.883,6.693,-2.195,6.985
Methenamine,100-97-0,C1N2CN3CN1CN(C2)C3,C1N2CN3CN1CN(C2)C3,-2.239,-0.768,0.51,-16.144000000000002,3.274
"Aluminium, tris(2-methylpropyl)-",100-99-2,CC(C)C[Al](CC(C)C)CC(C)C,CC(C)C[Al](CC(C)C)CC(C)C,5.819,-3.8689999999999998,5.318,0.20199999999999999,10.387
Triphenyl phosphite,101-02-0,O(P(Oc1ccccc1)Oc2ccccc2)c3ccccc3,c1ccc(OP(Oc2ccccc2)Oc2ccccc2)cc1,3.85,-5.155,4.151,-5.462000000000001,4.267
Anilazine,101-05-3,Clc1nc(Cl)nc(Nc2ccccc2Cl)n1,Clc1nc(Cl)nc(Nc2ccccc2Cl)n1,3.042,-3.841,3.313,-8.582,0.017
"Benzene, 1,1'-(1,2-ethanediyl)bis-",103-29-7,C(Cc1ccccc1)c2ccccc2,c1ccc(CCc2ccccc2)cc1,3.985,-3.909,4.513,-2.327,6.12
"Morpholine, 4,4'-dithiodi-",103-34-4,C1CN(CCO1)SSN2CCOCC2,C1CN(SSN2CCOCC2)CCO1,1.155,-1.192,0.986,-9.068999999999999,3.341
"Aniline, N-ethyl-",103-69-5,CCNc1ccccc1,CCNc1ccccc1,2.011,-2.569,2.129,-5.121,4.447
"Formamide, N-phenyl-",103-70-8,O=CNc1ccccc1,O=CNc1ccccc1,0.8190000000000001,-2.084,0.778,-8.225,6.931
"Benzene, isocyanato-",103-71-9,O=C=Nc1ccccc1,O=C=Nc1ccccc1,0.812,-2.004,1.947,-6.394,1.956
1-Piperazineethanol,103-76-4,OCCN1CCNCC1,OCCN1CCNCC1,-1.446,-0.602,-1.209,-10.344000000000001,8.999
Phenylacetic acid,103-82-2,OC(=O)Cc1ccccc1,O=C(O)Cc1ccccc1,-0.973,-1.854,1.287,-7.081,3.961
"Acetamide, N-phenyl-",103-84-4,CC(=O)Nc1ccccc1,CC(=O)Nc1ccccc1,0.459,-2.056,1.044,-8.669,4.12
"Acetamide, N-(4-hydroxyphenyl)-",103-90-2,CC(=O)Nc1ccc(O)cc1,CC(=O)Nc1ccc(O)cc1,0.16899999999999998,-1.8980000000000001,0.5539999999999999,-11.985999999999999,7.77
p-Toluenesulfonic acid,104-15-4,Cc1ccc(cc1)[S](O)(=O)=O,Cc1ccc(S(=O)(=O)O)cc1,0.958,-1.405,-1.849,-10.690999999999999,-5.831
"Ethanol, 2,2'-[1,4-phenylenebis(oxy)]bis-",104-38-1,OCCOc1ccc(OCCO)cc1,OCCOc1ccc(OCCO)cc1,0.7240000000000001,-2.291,0.405,-8.654,9.777
"Anisole, 4-propenyl-",104-46-1,COc1ccc(C=CC)cc1,CC=Cc1ccc(OC)cc1,3.31,-3.096,3.542,-3.736,4.71
Cinnamaldehyde,104-55-2,O=CC=Cc1ccccc1,O=CC=Cc1ccccc1,1.1909999999999998,-2.52,2.14,-4.275,3.133
"Benzene, 1,1'-[1,2-ethanediylbis(oxy)]bis-",104-66-5,C(COc1ccccc1)Oc2ccccc2,c1ccc(OCCOc2ccccc2)cc1,3.678,-4.011,3.869,-3.862,4.733
2-(2-Phenoxyethoxy)ethanol,104-68-7,OCCOCCOc1ccccc1,OCCOCCOc1ccccc1,1.5719999999999998,-2.285,0.994,-6.768,9.674
"1-Hexanamine, 2-ethyl-",104-75-6,CCCCC(CC)CN,CCCCC(CC)CN,-0.315,-2.906,2.474,-1.8840000000000001,11.036
"1-Hexanol, 2-ethyl-",104-76-7,CCCCC(CC)CO,CCCCC(CC)CO,3.39,-2.124,2.907,-2.84,8.75
"alpha,4-dichlorotoluene",104-83-6,ClCc1ccc(Cl)cc1,ClCc1ccc(Cl)cc1,4.379,-3.4960000000000004,3.295,-2.504,6.261
"Benzaldehyde, 4-chloro-",104-88-1,Clc1ccc(C=O)cc1,O=Cc1ccc(Cl)cc1,3.1260000000000003,-2.741,2.314,-4.738,3.56
"2-Picoline, 5-ethyl-",104-90-5,CCc1ccc(C)nc1,CCc1ccc(C)nc1,2.451,-1.9880000000000002,2.0780000000000003,-4.405,5.903
"Anisole, p-methyl-",104-93-8,COc1ccc(C)cc1,COc1ccc(C)cc1,3.4610000000000003,-2.6319999999999997,2.583,-3.005,5.272
p-Anisidine,104-94-9,COc1ccc(N)cc1,COc1ccc(N)cc1,0.688,-1.7180000000000002,0.6709999999999999,-7.652,4.929
"Benzene, 1,4-diethyl-",105-05-5,CCc1ccc(CC)cc1,CCc1ccc(CC)cc1,4.296,-3.255,4.519,-1.827,5.754
"1,4-Cyclohexanedimethanol",105-08-8,OCC1CCC(CO)CC1,OCC1CCC(CO)CC1,1.044,-1.337,-0.039,-6.172999999999999,12.28
"Methacrylic acid, 2-(diethylamino)ethyl ester",105-16-8,CCN(CC)CCOC(=O)C(C)=C,C=C(C)C(=O)OCCN(CC)CC,-0.02,-2.57,1.916,-6.136,8.38