chemical_name,cas,smiles,canonical_smiles,log_p,log_s,kow,water-energy,pka
"Propanol, 1(or 2)-(2-methoxymethylethoxy)-",34590-94-8,COC(C)COC(C)CO,COC(C)COC(C)CO,0.043,-0.7190000000000001,-0.105,-6.774,14.469
"Phenol, methyl-, sodium salt",34689-46-8,[Na+].Cc1ccccc1[O-],Cc1ccccc1[O-].[Na+],2.764,-2.51,2.371,-3.054,3.329
"Phosphonic acid, [[(phosphonomethyl)imino]bis[6,1-hexanediylnitrilobis(methylene)]]tetrakis-",34690-00-1,O[P](O)(=O)CN(CCCCCCN(C[P](O)(O)=O)C[P](O)(O)=O)CCCCCCN(C[P](O)(O)=O)C[P](O)(O)=O,O=P(O)(O)CN(CCCCCCN(CP(=O)(O)O)CP(=O)(O)O)CCCCCCN(CP(=O)(O)O)CP(=O)(O)O,1.699,-0.569,-3.656,-15.864,6.544
"Cyclohexanemethanol, 4-methyl-",34885-03-5,CC1CCC(CO)CC1,CC1CCC(CO)CC1,3.38,-2.097,2.282,-2.6660000000000004,10.578
"Benzene, 1,3-dichloro-5-isocyanato-",34893-92-0,Clc1cc(Cl)cc(c1)N=C=O,O=C=Nc1cc(Cl)cc(Cl)c1,3.1660000000000004,-3.484,3.514,-6.132999999999999,4.862
"Benzenepropanoic acid, 3,5-bis(1,1-dimethylethyl)-4-hydroxy-, 1,6-hexanediy",35074-77-2,CC(C)(C)c1cc(CCC(=O)OCCCCCCOC(=O)CCc2cc(c(O)c(c2)C(C)(C)C)C(C)(C)C)cc(c1O)C(C)(C)C,CC(C)(C)c1cc(CCC(=O)OCCCCCCOC(=O)CCc2cc(C(C)(C)C)c(O)c(C(C)(C)C)c2)cc(C(C)(C)C)c1O,5.5539999999999985,-5.4620000000000015,4.9289999999999985,-4.776,10.134
"Benzenamine, 2-ethyl-6-methyl-N-methylene-",35203-06-6,CCc1cccc(C)c1N=C,C=Nc1c(C)cccc1CC,3.43,-3.449,3.739,-3.735,7.205
"Aniline, 2,6-diethyl-N-methylene-",35203-08-8,CCc1cccc(CC)c1N=C,C=Nc1c(CC)cccc1CC,3.744,-3.7430000000000003,4.082,-3.725,7.814
"Propionamide, N-benzyl-N-isopropyl-2,2-dimethyl",35256-85-0,CC(C)N(Cc1ccccc1)C(=O)C(C)(C)C,CC(C)N(Cc1ccccc1)C(=O)C(C)(C)C,4.368,-4.091,2.991,-6.312,7.536
"1,4-Cyclohexanedimethanol, dibenzoate",35541-81-2,OCC1CCC(CO)CC1.OC(=O)c2ccccc2.OC(=O)c3ccccc3,O=C(O)c1ccccc1.O=C(O)c1ccccc1.OCC1CCC(CO)CC1,-0.048,-1.74,1.145,-7.52,4.849
?SIDS,35884-42-5,CCCCOCCCOC(O)CC,CCCCOCCCOC(O)CC,1.98,-1.599,1.266,-6.096,15.46
Calcium di-beta-alaninate,36321-40-1,[Ca++].NCCC([O-])=O.NCCC([O-])=O,NCCC(=O)[O-].NCCC(=O)[O-].[Ca+2],-2.347,-0.5379999999999999,-1.128,-8.514,9.19
"Spiro[isobenzofuran-1(3H),9'-[9H]xanthen]-3-one, 6'-(diethylamino)-2'-[(2,4",36431-22-8,CCN(CC)c1ccc2c(Oc3cc(C)c(Nc4ccc(C)cc4C)cc3C25OC(=O)c6ccccc56)c1,CCN(CC)c1ccc2c(c1)Oc1cc(C)c(Nc3ccc(C)cc3C)cc1C21OC(=O)c2ccccc21,4.191,-5.432,6.037000000000001,-7.474,4.654
"Benzenepropanoic acid, 3-(1,1-dimethylethyl)-4-hydroxy-5-methyl-, 1,2-ethanediylbis(oxy-2,1-ethanediyl) ester",36443-68-2,Cc1cc(CCC(=O)OCCOCCOCCOC(=O)CCc2cc(C)c(O)c(c2)C(C)(C)C)cc(c1O)C(C)(C)C,Cc1cc(CCC(=O)OCCOCCOCCOC(=O)CCc2cc(C)c(O)c(C(C)(C)C)c2)cc(C(C)(C)C)c1O,4.4830000000000005,-4.478,3.661,-6.3420000000000005,10.911
"Benzenesulfonic acid, decyl(sulfophenoxy)-, disodium salt",36445-71-3,[Na+].[Na+].CCCCCCCCCCc1cccc(Oc2ccccc2[S]([O-])(=O)=O)c1[S]([O-])(=O)=O,CCCCCCCCCCc1cccc(Oc2ccccc2S(=O)(=O)[O-])c1S(=O)(=O)[O-].[Na+].[Na+],3.489,-4.751,5.435,-6.329,5.005
"1,3,5-Triazine-2,4,6(1H,3H,5H)-trione, disodium salt",36452-21-8,[Na+].[Na+].O=C1NC(=O)[N-]C(=O)[N-]1,O=c1[n-]c(=O)[nH]c(=O)[n-]1.[Na+].[Na+],-2.164,-0.8240000000000001,-0.8290000000000001,-13.855,9.699
"1,2,4-Benzenetricarboxylic acid, triisodecyl ester",36631-30-8,CC(C)CCCCCCCOC(=O)c1ccc(C(=O)OCCCCCCCC(C)C)c(c1)C(=O)OCCCCCCCC(C)C,CC(C)CCCCCCCOC(=O)c1ccc(C(=O)OCCCCCCCC(C)C)c(C(=O)OCCCCCCCC(C)C)c1,5.3679999999999986,-6.245,9.309,-3.4789999999999996,6.145
1-Hexadecanol,36653-82-4,CCCCCCCCCCCCCCCCO,CCCCCCCCCCCCCCCCO,4.533,-4.7810000000000015,7.22,-1.805,7.94
"3,5,5-Trimethylhexanoyl chloride",36727-29-4,CC(CC(Cl)=O)CC(C)(C)C,CC(CC(=O)Cl)CC(C)(C)C,4.401,-2.812,3.936,-1.204,6.608
"3-(3,5-Dichlorophenyl)-2,4-dioxo-N-isopropylimidazolidine-1-carboxamide",36734-19-7,CC(C)NC(=O)N1CC(=O)N(C1=O)c2cc(Cl)cc(Cl)c2,CC(C)NC(=O)N1CC(=O)N(c2cc(Cl)cc(Cl)c2)C1=O,1.906,-3.37,2.656,-11.917,8.037
Bisnonyl phenyl amine,36878-20-3,CCCCCCCCCN(CCCCCCCCC)c1ccccc1,CCCCCCCCCN(CCCCCCCCC)c1ccccc1,4.684,-5.965,9.196,-2.397,5.796
"5,5'-(1H-Isoindole-1,3(2H)-diylidene)dibarbituric acid",36888-99-0,O=C1NC(=O)C(C(=O)N1)=C2NC(c3ccccc23)=C4C(=O)NC(=O)NC4=O,O=C1NC(=O)C(=c2[nH]c(=C3C(=O)NC(=O)NC3=O)c3ccccc23)C(=O)N1,0.784,-2.108,-0.924,-15.857999999999999,8.171
"Disodium 4,4'-bis[(6-anilino-4-chloro-1,3,5-triazin-2-yl)amino]stilbene-2,2'-disulphonate",37138-23-1,[Na+].[Na+].[O-][S](=O)(=O)c1cc(Nc2nc(Cl)nc(Nc3ccccc3)n2)ccc1C=Cc4ccc(Nc5nc(Cl)nc(Nc6ccccc6)n5)cc4[S]([O-])(=O)=O,O=S(=O)([O-])c1cc(Nc2nc(Cl)nc(Nc3ccccc3)n2)ccc1C=Cc1ccc(Nc2nc(Cl)nc(Nc3ccccc3)n2)cc1S(=O)(=O)[O-].[Na+].[Na+],3.494,-4.342,4.43,-11.287,1.679
"2-Propanamine, 1-methoxy-",37143-54-7,COCC(C)N,COCC(C)N,-3.29,-0.521,-0.218,-6.5489999999999995,8.819
Calcium magnesium oxide,37247-91-9,[O--].[O--].[Mg++].[Ca++],[Ca+2].[Mg+2].[O-2].[O-2],1.459,-1.587,2.016,-4.881,2.89
"Benzenesulfonic acid, (1-methylethyl)-, ammonium salt",37475-88-0,[NH4+].CC(C)c1ccccc1[S]([O-])(=O)=O,CC(C)c1ccccc1S(=O)(=O)[O-].[NH4+],2.882,-2.516,2.165,-6.256,9.69
"Methanesulfonamide, N-[2-[ethyl(3-methylphenyl)amino]ethyl]-",37717-68-3,CCN(CCN[S](C)(=O)=O)c1cccc(C)c1,CCN(CCNS(C)(=O)=O)c1cccc(C)c1,2.37,-2.677,1.369,-9.327,8.17
"Formic acid, chlorothio-, S-benzyl ester",37734-45-5,ClC(=O)SCc1ccccc1,O=C(Cl)SCc1ccccc1,3.583,-2.952,3.062,-4.148,-1.599
"Acetamide, 2,2-dichloro-N,N-di-2-propenyl-",37764-25-3,ClC(Cl)C(=O)N(CC=C)CC=C,C=CCN(CC=C)C(=O)C(Cl)Cl,3.338,-2.928,1.903,-7.8389999999999995,6.416
"Benzene, 1,1'-[1,2-ethanediylbis(oxy)]bis[2,4,6-tribromo-",37853-59-1,Brc1cc(Br)c(OCCOc2c(Br)cc(Br)cc2Br)c(Br)c1,Brc1cc(Br)c(OCCOc2c(Br)cc(Br)cc2Br)c(Br)c1,4.822,-7.0360000000000005,6.81,-4.6819999999999995,12.28
"1,2,4-Butanetricarboxylic acid, 2-phosphono-",37971-36-1,OC(=O)CCC(CC(O)=O)(C(O)=O)[P](O)(O)=O,O=C(O)CCC(CC(=O)O)(C(=O)O)P(=O)(O)O,-2.736,-0.915,-2.344,-16.179000000000002,3.585
"Phosphoric acid, 2,2-bis(chloromethyl)-1,3-propanediyl tetrakis(2-chloroethyl)",38051-10-4,ClCCO[P](=O)(OCCCl)OCC(CCl)(CCl)CO[P](=O)(OCCCl)OCCCl,O=P(OCCCl)(OCCCl)OCC(CCl)(CCl)COP(=O)(OCCCl)OCCCl,5.058,-3.088,2.4330000000000003,-9.149,9.688
"1,3-Isobenzofurandione, 5,5'-[(1-methylethylidene)bis(4,1-phenyleneoxy)]bis",38103-06-9,CC(C)(c1ccc(Oc2ccc3C(=O)OC(=O)c3c2)cc1)c4ccc(Oc5ccc6C(=O)OC(=O)c6c5)cc4,CC(C)(c1ccc(Oc2ccc3c(c2)C(=O)OC3=O)cc1)c1ccc(Oc2ccc3c(c2)C(=O)OC3=O)cc1,4.099,-5.5329999999999995,5.216,-7.731,4.777
"Ethanol, 2-(2-butoxyethoxy)-, sodium salt",38321-18-5,[Na+].CCCCOCCOCC[O-],CCCCOCCOCC[O-].[Na+],2.593,-1.554,1.188,-5.205,7.35
"Naphthalene, bis(1-methylethyl)-",38640-62-9,CC(C)c1ccc2ccccc2c1C(C)C,CC(C)c1ccc2ccccc2c1C(C)C,5.172999999999999,-5.19,5.681,-2.544,5.071
"Ethanone, 1-(4-(2-methylpropyl)phenyl)-",38861-78-8,CC(C)Cc1ccc(cc1)C(C)=O,CC(=O)c1ccc(CC(C)C)cc1,3.959,-3.5410000000000004,3.768,-4.145,10.296
Dilithium nonanedioate,38900-29-7,[Li+].[Li+].[O-]C(=O)CCCCCCCC([O-])=O,O=C([O-])CCCCCCCC(=O)[O-].[Li+].[Li+],2.617,-2.504,2.644,-4.962,4.749
"Aspartic acid, N-(3-carboxy-1-oxo-3-sulfopropyl)-N-octadecyl-, tetrasodium salt",38916-42-6,[Na+].[Na+].[Na+].[Na+].CCCCCCCCCCCCCCCCCCN(C(CC([O-])=O)C([O-])=O)C(=O)CC(C([O-])=O)[S]([O-])(=O)=O,CCCCCCCCCCCCCCCCCCN(C(=O)CC(C(=O)[O-])S(=O)(=O)[O-])C(CC(=O)[O-])C(=O)[O-].[Na+].[Na+].[Na+].[Na+],1.7990000000000002,-4.372,6.037000000000001,-6.864,3.853
Aluminium triethyl triphosphonate,39148-24-8,[AlH2].CCO[PH](=O)O[P](=O)(OCC)O[PH](=O)OCC,CCO[PH](=O)OP(=O)(OCC)O[PH](=O)OCC.[AlH2],3.604,-1.094,-0.244,-10.998,9.884
Tripropylene glycol diacrylate,42978-66-5,CC(O)COC(C)COC(C)CO.OC(=O)C=C.OC(=O)C=C,C=CC(=O)O.C=CC(=O)O.CC(O)COC(C)COC(C)CO,-1.878,-0.46299999999999997,-0.222,-8.99,5.489
"Butanone, (4-chlorophenoxy)-3,3-dimethyl-1,2,4-triazol-1-yl-",43121-43-3,CCC(=O)C(Oc1ccc(Cl)cc1)N2NC(C)(C)N=C2,CCC(=O)C(Oc1ccc(Cl)cc1)N1C=NC(C)(C)N1,1.582,-3.432,2.396,-9.856,4.22
2-Methylbutyl acrylate,44914-03-6,CCC(C)COC(=O)C=C,C=CC(=O)OCC(C)CC,3.532,-2.5980000000000003,2.6010000000000004,-2.952,8.491
[2-(Acryloyloxy)ethyl]trimethyl ammonium chloride,44992-01-0,[Cl-].C[N+](C)(C)CCOC(=O)C=C,C=CC(=O)OCC[N+](C)(C)C.[Cl-],-1.225,-2.162,-2.553,-4.615,8.791
Trimethyl-3-[(1-oxoallyl)amino]propyl ammonium chloride,45021-77-0,[Cl-].C[N+](C)(C)CCCNC(=O)C=C,C=CC(=O)NCCC[N+](C)(C)C.[Cl-],-1.959,-2.048,-2.825,-7.3,9.06
"Methacrylic acid, 2-methyl-, eicosyl ester",45294-18-6,CCCCCCCCCCCCCCCCCCCCOC(=O)C(C)=C,C=C(C)C(=O)OCCCCCCCCCCCCCCCCCCCC,5.488,-5.671,9.438,-1.787,7.783
"Hexanoic acid, 6-[methyl(phenylsulphonyl)amino]-",46948-72-5,CN(CCCCCC(O)=O)[S](=O)(=O)c1ccccc1,CN(CCCCCC(=O)O)S(=O)(=O)c1ccccc1,0.22,-2.801,1.29,-10.432,5.336
2-Phenoxyethyl acrylate,48145-04-6,C=CC(=O)OCCOc1ccccc1,C=CC(=O)OCCOc1ccccc1,2.28,-3.2230000000000003,2.565,-5.206,8.003
"1,3-Oxazoline-2,4-dione, N-3,5-dichlorophenyl-5-methyl-5-vinyl-",50471-44-8,CC1(OC(=O)N(C1=O)c2cc(Cl)cc(Cl)c2)C=C,C=CC1(C)OC(=O)N(c2cc(Cl)cc(Cl)c2)C1=O,3.267,-4.053,3.176,-8.424,6.042
"Benzoic acid, 5-[2-chloro-4-(trifluoromethyl)phenoxy]-2-nitro-",50594-66-6,OC(=O)c1cc(Oc2ccc(cc2Cl)C(F)(F)F)ccc1[N+]([O-])=O,O=C(O)c1cc(Oc2ccc(C(F)(F)F)cc2Cl)ccc1[N+](=O)[O-],1.274,-4.917,3.929,-6.19,4.021
"Phenol, 3-[2-chloro-4-(trifluoromethyl)phenoxy]-, acetate",50594-77-9,CC(O)=O.Oc1cccc(Oc2ccc(cc2Cl)C(F)(F)F)c1,CC(=O)O.Oc1cccc(Oc2ccc(C(F)(F)F)cc2Cl)c1,0.509,-3.59,2.675,-5.5889999999999995,6.269
"3,5-Bis(6-isocyanatohexyl)-2H-1,3,5-oxadiazine-2,4,6(3H,5H)-trione",50639-37-7,O=C=NCCCCCCN1C(=O)OC(=O)N(CCCCCCN=C=O)C1=O,O=C=NCCCCCCn1c(=O)oc(=O)n(CCCCCCN=C=O)c1=O,1.55,-3.0010000000000003,1.681,-10.780999999999999,5.586
"3-Isopropyl-2,1,3-benzothiadiazin-4-one 2,2-dioxide Na salt",50723-80-3,[Na+].CC(C)N1C(=O)c2ccccc2[N-][S]1(=O)=O,CC(C)N1C(=O)c2ccccc2[N-]S1(=O)=O.[Na+],0.25,-2.6260000000000003,1.966,-9.392000000000001,6.333
"Benzaldehyde, 2-hydroxy-5-nonyl-, oxime",50849-47-3,CCCCCCCCCc1ccc(O)c(C=NO)c1,CCCCCCCCCc1ccc(O)c(C=NO)c1,3.2460000000000004,-4.623,6.33,-6.318,10.41
Barium sulfide (Ba(Sx)),50864-67-0,S.[Ba],S.[Ba],3.377,-1.474,2.756,-2.955,9.951
"Benzaldehyde, 2-amino-3,5-dibromo-",50910-55-9,Nc1c(Br)cc(Br)cc1C=O,Nc1c(Br)cc(Br)cc1C=O,2.441,-3.677,3.164,-8.881,0.952
"Phosphoric acid, dodecyl sodium salt",50957-96-5,[Na+].[Na+].CCCCCCCCCCCCO[P]([O-])([O-])=O,CCCCCCCCCCCCOP(=O)([O-])[O-].[Na+].[Na+],4.376,-3.5410000000000004,5.598,-4.046,3.583
"Neodecanoic acid, ethenyl ester",51000-52-3,CC(C)(C)CCCCCC(=O)OC=C,C=COC(=O)CCCCCC(C)(C)C,4.86,-3.655,4.619,-2.084,8.853
"1,3-Benzenedicarboxylic acid, 5-sulfo-, monosodium salt, compd. with 1,6-hexanediamine (1:1)",51178-75-7,[Na+].NCCCCCCN.OC(=O)c1cc(cc(c1)[S](O)(=O)=O)C([O-])=O,NCCCCCCN.O=C([O-])c1cc(C(=O)O)cc(S(=O)(=O)O)c1.[Na+],-1.658,-1.864,-1.877,-10.799000000000001,6.774
2-Chloro-2'-ethyl-N-(2-methoxy-1-methylethyl)-6'-methylacetanilide,51218-45-2,CCc1cccc(C)c1N(C(C)COC)C(=O)CCl,CCc1cccc(C)c1N(C(=O)CCl)C(C)COC,3.48,-4.2330000000000005,2.651,-7.016,5.288
"1,3,5-Triazine-2,4(1H,3H)-dione, 3-cyclohexyl-6-(dimethylamino)-1-methyl-",51235-04-2,CN(C)C1=NC(=O)N(C2CCCCC2)C(=O)N1C,CN(C)c1nc(=O)n(C2CCCCC2)c(=O)n1C,1.4380000000000002,-2.391,1.947,-11.807,6.346
"Methyl 2-[4-(2,4-dichlorophenoxy)phenoxy]propionate",51338-27-3,COC(=O)C(C)Oc1ccc(Oc2ccc(Cl)cc2Cl)cc1,COC(=O)C(C)Oc1ccc(Oc2ccc(Cl)cc2Cl)cc1,4.087,-4.989,4.581,-5.659,8.429
"2-Propanal, 2-(4-isobutylphenyl)-",51407-46-6,CC(C)Cc1ccc(cc1)C(C)C=O,CC(C)Cc1ccc(C(C)C=O)cc1,4.057,-4.055,4.271,-3.929,6.028
Iron hydroxide sulfate,51434-22-1,[OH-].[Fe+3].[O-][S]([O-])(=O)=O,O=S(=O)([O-])[O-].[Fe+3].[OH-],0.198,0.009000000000000001,0.129,-6.359,18.041
Sodium dichloroisocyanurate dihydrate,51580-86-0,O.O.[Na+].ClN1C(=O)[N-]C(=O)N(Cl)C1=O,O.O.O=c1[n-]c(=O)n(Cl)c(=O)n1Cl.[Na+],-1.39,-1.0270000000000001,0.146,-13.843,5.683
"Benzene, 1-(bromomethyl)-3-phenoxy-",51632-16-7,BrCc1cccc(Oc2ccccc2)c1,BrCc1cccc(Oc2ccccc2)c1,4.242,-4.824,4.75,-4.386,4.429
isoundecan-1-ol,51750-47-1,CC(C)CCCCCCCCO,CC(C)CCCCCCCCO,3.741,-3.488,4.498,-2.1069999999999998,8.437
Isoheptanol,51774-11-9,CC(C)CCCCO,CC(C)CCCCO,2.292,-1.838,2.259,-2.943,9.691
"Phenol, 2,5-dichloro-, sodium salt",52166-72-0,[Na+].[O-]c1cc(Cl)ccc1Cl,[Na+].[O-]c1cc(Cl)ccc1Cl,3.468,-3.548,3.076,-3.428,5.762
"Cyclopropanecarbonyl chloride, 3-(2,2-dichloroethenyl)-2,2-dimethyl-",52314-67-7,CC1(C)C(C=C(Cl)Cl)C1C(Cl)=O,CC1(C)C(C=C(Cl)Cl)C1C(=O)Cl,4.172,-5.12,5.072,-3.73,7.943
"1-Hexadecanaminium, N,N-dihexadecyl-N-methyl-, chloride",52467-63-7,[Cl-].CCCCCCCCCCCCCCCC[N+](C)(CCCCCCCCCCCCCCCC)CCCCCCCCCCCCCCCC,CCCCCCCCCCCCCCCC[N+](C)(CCCCCCCCCCCCCCCC)CCCCCCCCCCCCCCCC.[Cl-],4.218,-6.3020000000000005,8.826,-0.483,7.773
"1-Propanesulfonic acid, 2-hydroxy-3-(2-propenyloxy)-, monosodium salt",52556-42-0,[Na+].OC(COCC=C)C[S]([O-])(=O)=O,C=CCOCC(O)CS(=O)(=O)[O-].[Na+],0.211,-0.532,-0.309,-9.465,8.34
"1-Ethanol, 4-hydroxy-2,2,6,6-tetramethylpiperidine-",52722-86-8,CC1(C)CC(O)CC(C)(C)N1CCO,CC1(C)CC(O)CC(C)(C)N1CCO,-0.969,-1.9240000000000002,0.504,-7.84,9.706
"Decanedioic acid, bis(2,2,6,6-tetramethyl-4-piperidinyl) ester",52829-07-9,CC1(C)CC(CC(C)(C)N1)OC(=O)CCCCCCCCC(=O)OC2CC(C)(C)NC(C)(C)C2,CC1(C)CC(OC(=O)CCCCCCCCC(=O)OC2CC(C)(C)NC(C)(C)C2)CC(C)(C)N1,1.204,-3.878,3.411,-4.662,9.619
"Octadecanoic acid, 12-hydroxy-, methyl ester, lithium salt",53422-16-5,[Li+].CCCCCCC([O-])CCCCCCCCCCC(=O)OC,CCCCCCC([O-])CCCCCCCCCCC(=O)OC.[Li+],4.932,-4.615,6.641,-2.405,6.409
"Adipic acid, 2,2,4(or 2,4,4)-trimethyl-",53445-37-7,CC(CC(O)=O)CC(C)(C)C(O)=O,CC(CC(=O)O)CC(C)(C)C(=O)O,-1.403,-1.742,0.919,-7.704,5.635
"2,5-Furandione, 3-(eicosenyl)dihydro-",53520-67-5,CCCCCCCCCCCCCCCCCCC=CC1CC(=O)OC1=O,CCCCCCCCCCCCCCCCCCC=CC1CC(=O)OC1=O,4.3889999999999985,-4.976,8.645,-2.773,5.453
"zinc 3,5-bis(alpha-methylbenzyl)salicylate",53770-52-8,[Zn++].CC(c1ccccc1)c2cc(C(C)c3ccccc3)c(O)c(c2)C([O-])=O.CC(c4ccccc4)c5cc(C(C)c6ccccc6)c(O)c(c5)C([O-])=O,CC(c1ccccc1)c1cc(C(=O)[O-])c(O)c(C(C)c2ccccc2)c1.CC(c1ccccc1)c1cc(C(=O)[O-])c(O)c(C(C)c2ccccc2)c1.[Zn+2],3.895,-5.02,6.126,-6.269,9.782
Aluminium hydroxide sulfate,53810-32-5,[OH-].[Al+3].[O-][S]([O-])(=O)=O,O=S(=O)([O-])[O-].[Al+3].[OH-],0.124,-0.008,0.11,-6.4879999999999995,15.652
"1,2,4-Benzenetricarboxylic acid, triisononyl ester",53894-23-8,CC(C)CCCCCCOC(=O)c1ccc(C(=O)OCCCCCCC(C)C)c(c1)C(=O)OCCCCCCC(C)C,CC(C)CCCCCCOC(=O)c1ccc(C(=O)OCCCCCCC(C)C)c(C(=O)OCCCCCCC(C)C)c1,5.324,-6.153,8.901,-3.695,5.951
"2-Cyclohexene-1-octanoic acid, 5(or 6)-carboxy-4-hexyl-",53980-88-4,CCCCCCC1C=CC(CCCCCCCC(O)=O)CC1C(O)=O,CCCCCCC1C=CC(CCCCCCCC(=O)O)CC1C(=O)O,1.616,-3.9530000000000003,4.865,-4.66,4.962
"Acetamide, N-(4-fluorophenyl)-2-hydroxy-N-(1-methylethyl)-",54041-17-7,CC(C)N(C(=O)CO)c1ccc(F)cc1,CC(C)N(C(=O)CO)c1ccc(F)cc1,1.817,-3.0780000000000003,0.909,-9.402999999999999,8.93
"Zinc, bis[O,O-bis(dodecylphenyl) phosphorodithioato-kappa.S,kappa.S']-",54261-67-5,[Zn++].CCCCCCCCCCCCc1ccc(O[P]([S-])(=S)Oc2ccc(CCCCCCCCCCCC)cc2)cc1.CCCCCCCCCCCCc3ccc(O[P]([S-])(=S)Oc4ccc(CCCCCCCCCCCC)cc4)cc3,CCCCCCCCCCCCc1ccc(OP(=S)([S-])Oc2ccc(CCCCCCCCCCCC)cc2)cc1.CCCCCCCCCCCCc1ccc(OP(=S)([S-])Oc2ccc(CCCCCCCCCCCC)cc2)cc1.[Zn+2],4.877,-6.807,10.216,-2.708,8.382
Triethylammonium hydrogen sulphate,54272-29-6,CC[NH+](CC)CC.O[S]([O-])(=O)=O,CC[NH+](CC)CC.O=S(=O)([O-])O,-2.023,-0.42200000000000004,-3.841,-5.044,5.958
"1H-Isoindole-1,3(2H)-dione, 5,5'-[(1-methylethylidene)bis(4,1-phenyleneoxy)",54395-52-7,CN1C(=O)c2ccc(Oc3ccc(cc3)C(C)(C)c4ccc(Oc5ccc6C(=O)N(C)C(=O)c6c5)cc4)cc2C1=O,CN1C(=O)c2ccc(Oc3ccc(C(C)(C)c4ccc(Oc5ccc6c(c5)C(=O)N(C)C6=O)cc4)cc3)cc2C1=O,4.008,-5.119,5.442,-9.905,7.21
"Ethanone, 1-(1,2,3,4,5,6,7,8-octahydro-2,3,8,8-tetramethyl-2-naphthalenyl)-",54464-57-2,CC1CC2=C(CC1(C)C(C)=O)C(C)(C)CCC2,CC(=O)C1(C)CC2=C(CCCC2(C)C)CC1C,4.248,-3.367,4.238,-2.6910000000000003,7.633
"Benzoic acid, 2-[4-(dibutylamino)-2-hydroxybenzoyl]-",54574-82-2,CCCCN(CCCC)c1ccc(c(O)c1)C(=O)c2ccccc2C(O)=O,CCCCN(CCCC)c1ccc(C(=O)c2ccccc2C(=O)O)c(O)c1,1.735,-5.154,5.384,-9.142000000000001,5.498
2-Ethoxy-1-methylethyl acetate,54839-24-6,CCOCC(C)OC(C)=O,CCOCC(C)OC(C)=O,1.294,-1.0290000000000001,0.993,-4.476,14.627
"Tin, methyl-tris-isooctylmercaptoacetate",54849-38-6,[SnH4].COC(=O)C(SCCCCCC(C)C)(SCCCCCC(C)C)SCCCCCC(C)C,COC(=O)C(SCCCCCC(C)C)(SCCCCCC(C)C)SCCCCCC(C)C.[SnH4],5.12,-5.82,7.966,-1.9680000000000002,8.987
"Pentanoic acid, 4,4-dimethyl-3-oxo-, methyl ester",55107-14-7,COC(=O)CC(=O)C(C)(C)C,COC(=O)CC(=O)C(C)(C)C,1.5530000000000002,-1.475,1.0659999999999998,-5.571000000000001,9.438
"alpha-tert-Butyl-beta-(4-chlorophenoxy)-1H-1,2,4-triazole-1-ethanol",55219-65-3,CC(C)(C)C(O)C(Oc1ccc(Cl)cc1)n2cncn2,CC(C)(C)C(O)C(Oc1ccc(Cl)cc1)n1cncn1,2.3480000000000003,-3.7289999999999996,3.074,-10.685,6.334
"3-Formyl-2,2,5,5-tetramethylthiazolidine-4-carboxylic acid",55234-12-3,CC1(C)SC(C)(C)N(C=O)C1C(O)=O,CC1(C)SC(C)(C)N(C=O)C1C(=O)O,-1.081,-2.5269999999999997,0.518,-9.415,3.413
Carbosulfan,55285-14-8,CCCCN(CCCC)SN(C)C(=O)Oc1cccc2CC(C)(C)Oc12,CCCCN(CCCC)SN(C)C(=O)Oc1cccc2c1OC(C)(C)C2,4.2410000000000005,-5.091,5.756,-7.029,5.355
"Carbamic acid, butyl-, 3-iodo-2-propynyl ester",55406-53-6,CCCCNC(=O)OCC#CI,CCCCNC(=O)OCC#CI,3.38,-2.81,3.2510000000000003,-6.62,12.803
O-(6-Chloro-3-phenylpyridazin-4-yl)-S-octyl thiocarbonate,55512-33-9,CCCCCCCCSC(=O)Oc1cc(Cl)nnc1c2ccccc2,CCCCCCCCSC(=O)Oc1cc(Cl)nnc1-c1ccccc1,3.95,-5.33,5.751,-5.21,2.241
"6-Methyl-1,2,3-oxathiazin-4(3H)-one 2,2-dioxide, potassium salt",55589-62-3,[K+].CC1=CC(=O)N=[S]([O-])(=O)O1,CC1=CC(=O)N=S(=O)([O-])O1.[K+],-0.643,-0.762,-0.15,-6.872999999999999,5.237
"Propanol, [2-(2-butoxymethylethoxy)methylethoxy]-",55934-93-5,CCCCOCCCOCCCOC(O)CC,CCCCOCCCOCCCOC(O)CC,2.32,-1.9280000000000002,1.3,-6.19,15.85
"2-Oxetanone, 4-(8Z)-8-heptadecenylidene-3-(7Z)-7-hexadecenyl-",56000-16-9,CCCCCCCC\C=C/CCCCCCC=C1OC(=O)C1CCCCCC\C=C/CCCCCCCC,CCCCCCCC/C=C\CCCCCCC=C1OC(=O)C1CCCCCC/C=C\CCCCCCCC,5.313,-5.73,9.939,-2.182,5.608
"Methanesulfonamide, N-[2-[ethyl(3-methyl-4-nitrosophenyl)amino]ethyl]-",56046-62-9,CCN(CCN[S](C)(=O)=O)c1ccc(N=O)c(C)c1,CCN(CCNS(C)(=O)=O)c1ccc(N=O)c(C)c1,1.611,-2.548,1.042,-10.536,6.909
"2-Methylpropanol, 3-(p-tert-butylphenyl)-",56107-04-1,CC(CO)Cc1ccc(cc1)C(C)(C)C,CC(CO)Cc1ccc(C(C)(C)C)cc1,4.577,-3.89,4.598,-4.162,6.598
"Butanol, 3-methoxy-3-methyl-",56539-66-3,COC(C)(C)CCO,COC(C)(C)CCO,0.451,-1.092,0.314,-5.247999999999999,14.31
"Phosphoric acid, tert-butylphenyl diphenyl ester",56803-37-3,CC(C)(C)c1ccccc1O[P](=O)(Oc2ccccc2)Oc3ccccc3,CC(C)(C)c1ccccc1OP(=O)(Oc1ccccc1)Oc1ccccc1,4.417,-5.7520000000000024,5.102,-5.065,4.441
"Aniline, 5-chloro-2-(2,4-dichlorophenoxy)-",56966-52-0,Nc1cc(Cl)ccc1Oc2ccc(Cl)cc2Cl,Nc1cc(Cl)ccc1Oc1ccc(Cl)cc1Cl,3.823,-5.101,4.811,-5.832000000000001,5.772
"2-Propanol, 1-(1,1-dimethylethoxy)-",57018-52-7,CC(O)COC(C)(C)C,CC(O)COC(C)(C)C,1.885,-1.037,0.918,-5.947,15.519
"Tris(2,5,8,11-tetraoxatridecyl) orthoborate",57057-98-4,CCOCCOCCOCCOCOB(OCOCCOCCOCCOCC)OCOCCOCCOCCOCC,CCOCCOCCOCCOCOB(OCOCCOCCOCCOCC)OCOCCOCCOCCOCC,2.009,-1.5090000000000001,0.463,-7.468999999999999,14.637
Isononanoyl chloride,57077-36-8,CC(C)CCCCCC(Cl)=O,CC(C)CCCCCC(=O)Cl,4.471,-3.023,4.202,-1.835,8.029
"Oxybis(methyl-2,1-ethanediyl) diacrylate",57472-68-1,CC(COCC(C)OC(=O)C=C)OC(=O)C=C,C=CC(=O)OC(C)COCC(C)OC(=O)C=C,1.6780000000000002,-2.508,2.4530000000000003,-6.212000000000001,11.955
"Ethanone, 1-[1,6-dimethyl-4-(4-methyl-3-pentenyl)-3-cyclohexen-1-yl]-",57499-57-7,CC1CC(=CCC1(C)C(C)=O)CCC=C(C)C,CC(=O)C1(C)CC=C(CCC=C(C)C)CC1C,4.015,-3.58,4.695,-2.838,7.889
"8-Oxa-3,5-dithia-4-stannatetradecanoic acid, 10-ethyl-4-[[2-[(2-ethylhexyl)oxy]-2-oxoethyl]thio]-4-methyl-7-oxo-, 2-ethylhexyl ester",57583-34-3,CCCCC(CC)COC(=O)CS[Sn](C)(SCC(=O)OCC(CC)CCCC)SCC(=O)OCC(CC)CCCC,CCCCC(CC)COC(=O)CS[Sn](C)(SCC(=O)OCC(CC)CCCC)SCC(=O)OCC(CC)CCCC,4.8610000000000015,-5.077,6.388,-3.4130000000000003,7.536
"8-Oxa-3,5-dithia-4-stannatetradecanoic acid, 10-ethyl-4,4-dimethyl-7-oxo-, 2-ethylhexyl ester",57583-35-4,CCCCC(CC)COC(=O)CS[Sn](C)(C)SCC(=O)OCC(CC)CCCC,CCCCC(CC)COC(=O)CS[Sn](C)(C)SCC(=O)OCC(CC)CCCC,4.919,-4.631,5.524,-3.392,8.395
"9-Octadecenoic acid (9Z)-, 2-ethyl-2-[[[(9Z)-1-oxo-9-octadecenyl]oxy]methyl]-1,3-propanediyl ester",57675-44-2,CCCCCCCC\C=C/CCCCCCCC(=O)OCC(CC)(COC(=O)CCCCCCC\C=C/CCCCCCCC)COC(=O)CCCCCCC\C=C/CCCCCCCC,CCCCCCCC/C=C\CCCCCCCC(=O)OCC(CC)(COC(=O)CCCCCCC/C=C\CCCCCCCC)COC(=O)CCCCCCC/C=C\CCCCCCCC,5.5939999999999985,-5.705,9.404,-2.79,6.043