chemical_name,cas,smiles,canonical_smiles,log_p,log_s,kow,water-energy,pka
Sodium lauryl sulfate,151-21-3,[Na+].CCCCCCCCCCCCO[S]([O-])(=O)=O,CCCCCCCCCCCCOS(=O)(=O)[O-].[Na+],4.641,-3.2,5.401,-3.603,5.138
dinonyl adipate,151-32-6,CCCCCCCCCOC(=O)CCCCC(=O)OCCCCCCCCC,CCCCCCCCCOC(=O)CCCCC(=O)OCCCCCCCCC,5.529,-4.923,6.943,-2.713,6.784
Potassium cyanide,151-50-8,[K+].[C-]#N,[C-]#N.[K+],0.067,-0.745,0.7070000000000001,-4.3,2.679
Aziridine,151-56-4,C1CN1,C1CN1,-3.153,-0.5589999999999999,-1.16,-8.062000000000001,9.581
Zinc di(benzothiazol-2-yl) disulphide,155-04-4,[Zn].S(Sc1sc2ccccc2n1)c3sc4ccccc4n3,[Zn].c1ccc2sc(SSc3nc4ccccc4s3)nc2c1,3.756,-5.101,4.373,-5.513999999999999,4.054
"Aniline, 4-ethoxy-",156-43-4,CCOc1ccc(N)cc1,CCOc1ccc(N)cc1,1.499,-2.324,1.128,-6.992999999999999,3.693
"Ethylene, 1,2-dichloro-, (1E)-",156-60-5,Cl\C=C\Cl,Cl/C=C/Cl,4.152,-1.607,1.7080000000000002,-0.8959999999999999,4.15
"Cyanamide, calcium salt (1:1)",156-62-7,[Ca++].NC#N,N#CN.[Ca+2],-1.742,0.036000000000000004,-0.059,-7.997999999999999,5.32
"Bicyclo[2.2.2]octane, 1,4-diaza-",280-57-9,C1CN2CCN1CC2,C1CN2CCN1CC2,-0.4,-1.5630000000000002,0.28300000000000003,-9.868,8.704
Cyclopentane,287-92-3,C1CCCC1,C1CCCC1,5.218,-2.891,3.587,0.847,8.939
1H-Imidazole,288-32-4,[nH]1ccnc1,c1c[nH]cn1,-0.349,-0.722,-0.278,-10.218,7.917
s-Triazole,288-88-0,[nH]1cncn1,c1nc[nH]n1,-1.475,-0.172,-0.6970000000000001,-13.232000000000001,5.324
Cyclododecane,294-62-2,C1CCCCCCCCCCC1,C1CCCCCCCCCCC1,5.218,-2.891,3.587,0.847,8.939
"Parathion, methyl-",298-00-0,CO[P](=S)(OC)Oc1ccc(cc1)[N+]([O-])=O,COP(=S)(OC)Oc1ccc([N+](=O)[O-])cc1,3.91,-3.818,3.054,-6.909,1.429
"Phosphorodithioic acid, O,O-diethyl ester",298-06-6,CCO[P]([S-])(=S)OCC,CCOP(=S)([S-])OCC,3.801,-3.105,3.386,-4.47,5.384
"Phosphoric acid, bis(2-ethylhexyl) ester",298-07-7,CCCCC(CC)CO[P]([O-])(=O)OCC(CC)CCCC,CCCCC(CC)COP(=O)([O-])OCC(CC)CCCC,5.425,-3.737,6.034,-3.717,6.678
"Acetic acid, oxo-",298-12-4,OC(=O)C=O,O=CC(=O)O,-6.026,0.889,-1.507,-12.261,1.583
Potassium hydrogencarbonate,298-14-6,[K+].OC([O-])=O,O=C([O-])O.[K+],-5.052,0.247,-0.695,-7.0729999999999995,4.355
Carbamazepine,298-46-4,NC(=O)N1c2ccccc2C=Cc3ccccc13,NC(=O)N1c2ccccc2C=Cc2ccccc21,1.679,-3.443,2.184,-9.177,5.216
Calcium gluconate,299-28-5,[Ca++].OC[C@@H](O)[C@@H](O)[C@H](O)[C@@H](O)C([O-])=O.OC[C@@H](O)[C@@H](O)[C@H](O)[C@@H](O)C([O-])=O,O=C([O-])[C@H](O)[C@@H](O)[C@H](O)[C@H](O)CO.O=C([O-])[C@H](O)[C@@H](O)[C@H](O)[C@H](O)CO.[Ca+2],-1.877,0.209,-2.96,-21.631,7.262
Oleamide,301-02-0,CCCCCCCC\C=C/CCCCCCCC(N)=O,CCCCCCCC/C=C\CCCCCCCC(N)=O,3.995,-4.223,5.981,-3.8139999999999996,6.469
"Hexanoic acid, 2-ethyl-, tin (II) salt",301-10-0,[Sn++].CCCCC(CC)C([O-])=O.CCCCC(CC)C([O-])=O,CCCCC(CC)C(=O)[O-].CCCCC(CC)C(=O)[O-].[Sn+2],3.624,-2.903,3.365,-2.6430000000000002,10.506
Hydrazine,302-01-2,NN,NN,-7.691,1.083,-0.789,-9.718,4.869
"Ethane, 2,2-dichloro-1,1,1-trifluoro-",306-83-2,FC(F)(F)C(Cl)Cl,FC(F)(F)C(Cl)Cl,4.549,-2.557,2.3680000000000003,0.308,9.259
"1-Butanamine, 1,1,2,2,3,3,4,4-nonafluoro-N,N-bis(nonafluorobutyl)-",311-89-7,FC(F)(F)C(F)(F)C(F)(F)C(F)(F)N(C(F)(F)C(F)(F)C(F)(F)C(F)(F)F)C(F)(F)C(F)(F)C(F)(F)C(F)(F)F,FC(F)(F)C(F)(F)C(F)(F)C(F)(F)N(C(F)(F)C(F)(F)C(F)(F)C(F)(F)F)C(F)(F)C(F)(F)C(F)(F)C(F)(F)F,3.934,-4.997,6.763,2.748,8.183
"Benzene, 1,2-dichloro-4-(trifluoromethyl)-",328-84-7,FC(F)(F)c1ccc(Cl)c(Cl)c1,FC(F)(F)c1ccc(Cl)c(Cl)c1,4.675,-4.738,4.224,-0.597,8.549
"Benzene, 1-isocyanato-3-(trifluoromethyl)-",329-01-1,FC(F)(F)c1cccc(c1)N=C=O,O=C=Nc1cccc(C(F)(F)F)c1,2.78,-3.3310000000000004,2.927,-4.067,3.678
Diuron,330-54-1,CN(C)C(=O)Nc1ccc(Cl)c(Cl)c1,CN(C)C(=O)Nc1ccc(Cl)c(Cl)c1,3.768,-3.045,2.699,-10.497,11.018
Linuron,330-55-2,CON(C)C(=O)Nc1ccc(Cl)c(Cl)c1,CON(C)C(=O)Nc1ccc(Cl)c(Cl)c1,3.809,-3.173,2.922,-10.674000000000001,9.512
Diazinon,333-41-5,CCO[P](=S)(OCC)Oc1cc(C)nc(n1)C(C)C,CCOP(=S)(OCC)Oc1cc(C)nc(C(C)C)n1,3.626,-4.315,3.748,-6.244,6.072
Decanoic acid,334-48-5,CCCCCCCCCC(O)=O,CCCCCCCCCC(=O)O,1.6880000000000002,-2.8960000000000004,3.5410000000000004,-3.992,4.741
"Butanoyl fluoride, heptafluoro-",335-42-2,FC(=O)C(F)(F)C(F)(F)C(F)(F)F,O=C(F)C(F)(F)C(F)(F)C(F)(F)F,2.692,-3.1860000000000004,2.713,2.146,7.151
"Methane, bromochlorodifluoro-",353-59-3,FC(F)(Cl)Br,FC(F)(Cl)Br,5.474,-2.359,2.254,1.082,11.601
"Acetyl chloride, trifluoro-",354-32-5,FC(F)(F)C(Cl)=O,O=C(Cl)C(F)(F)F,1.954,-1.2009999999999998,0.885,-0.005,6.523
"Ethane, pentafluoro-",354-33-6,FC(F)C(F)(F)F,FC(F)C(F)(F)F,3.795,-2.037,1.53,1.714,10.354
"Ethane, 1,1,1-trichloro-2,2,2-trifluoro-",354-58-5,FC(F)(F)C(Cl)(Cl)Cl,FC(F)(F)C(Cl)(Cl)Cl,4.4460000000000015,-3.103,3.115,1.479,6.939
"2,2'-Bipyridyl",366-18-7,c1ccc(nc1)c2ccccn2,c1ccc(-c2ccccn2)nc1,1.295,-2.701,1.477,-6.558,4.45
"Ethane, 1,1-dichloro-1,2,2,2-tetrafluoro-",374-07-2,FC(F)(F)C(F)(Cl)Cl,FC(F)(F)C(F)(Cl)Cl,4.436,-2.785,2.67,2.125,7.784
"Acetic acid, trifluoro-, ethyl ester",383-63-1,CCOC(=O)C(F)(F)F,CCOC(=O)C(F)(F)F,2.963,-1.8869999999999998,1.107,-0.873,8.507
"4-Chloro-3,5-dinitro-alpha,alpha,alpha-trifluorotoluene",393-75-9,[O-][N+](=O)c1cc(cc(c1Cl)[N+]([O-])=O)C(F)(F)F,O=[N+]([O-])c1cc(C(F)(F)F)cc([N+](=O)[O-])c1Cl,2.648,-4.172,2.9810000000000003,-3.705,2.311
"Hexadecanoic acid, sodium salt",408-35-5,[Na+].CCCCCCCCCCCCCCCC([O-])=O,CCCCCCCCCCCCCCCC(=O)[O-].[Na+],4.789,-4.667,7.66,-1.8630000000000002,4.76
"Heptenone, methyl-",409-02-9,CCCC=CC(=O)CC,CCCC=CC(=O)CC,3.217,-1.694,2.6460000000000004,-3.514,9.967
Silicon carbide,409-21-2,[C-]#[Si+],[C-]#[Si+],-0.32,-1.075,1.729,-1.9580000000000002,1.116
Cyanamide,420-04-2,NC#N,N#CN,-2.91,0.6970000000000001,-0.885,-8.959,7.393
"Ethane, 1,1,1-trifluoro-",420-46-2,CC(F)(F)F,CC(F)(F)F,4.78,-1.3880000000000001,1.344,1.264,10.676
"1,1-dichloro-2,2,3,3,3-pentafluoropropane",422-56-0,FC(F)(F)C(F)(F)C(Cl)Cl,FC(F)(F)C(F)(F)C(Cl)Cl,4.2,-3.455,2.688,1.3159999999999998,10.11
"Oxirane, trifluoro(trifluoromethyl)-",428-59-1,FC(F)(F)C1(F)OC1(F)F,FC(F)(F)C1(F)OC1(F)F,4.103,-2.539,4.8610000000000015,2.3569999999999998,10.25
"Propane, 1,1,1,2,3,3,3-heptafluoro-",431-89-0,FC(C(F)(F)F)C(F)(F)F,FC(C(F)(F)F)C(F)(F)F,4.213,-3.0010000000000003,2.253,1.79,9.859
Chlordiazepoxide hydrochloride,438-41-5,[H+].[Cl-].CN=C1CN(O)C(=C2C=C(Cl)C=CC2=N1)c3ccccc3,CN=C1CN(O)C(c2ccccc2)=c2cc(Cl)ccc2=N1.[Cl-].[H+],2.553,-3.2460000000000004,2.5610000000000004,-8.292,5.358
"Benzene, 1-bromo-4-fluoro-",460-00-4,Fc1ccc(Br)cc1,Fc1ccc(Br)cc1,4.1389999999999985,-3.615,3.003,-1.5430000000000001,3.972
"Guanidine, cyano-",461-58-5,NC(=N)NC#N,N#CNC(=N)N,-2.725,0.622,-1.433,-15.282,0.598
"Benzene, fluoro-",462-06-6,Fc1ccccc1,Fc1ccccc1,3.195,-2.625,2.119,-0.419,2.454
Ketene,463-51-4,C=C=O,C=C=O,-2.016,0.166,0.379,-5.033,7.216
Calcium carbonate,471-34-1,[Ca++].[O-]C([O-])=O,O=C([O-])[O-].[Ca+2],-1.5319999999999998,-0.326,0.617,-4.3469999999999995,14.069
"Bicyclo[3.1.1]heptan-2-ol, 2,6,6-trimethyl-",473-54-1,CC1(C)C2CCC(C)(O)C1C2,CC1(O)CCC2CC1C2(C)C,2.829,-3.435,2.994,-4.073,11.116
"Bicyclo[3.1.1]heptane, 2,6,6-trimethyl-",473-55-2,CC1CCC2CC1C2(C)C,CC1CCC2CC1C2(C)C,4.91,-4.551,4.853,0.66,8.105
Propyphenazone,479-92-5,CC(C)C1=C(C)N(C)N(c2ccccc2)C1=O,Cc1c(C(C)C)c(=O)n(-c2ccccc2)n1C,1.96,-3.3510000000000004,2.257,-9.222999999999999,1.799
"3H-Indol-3-one, 2-(1,3-dihydro-3-oxo-2H-indol-2-ylidene)-1,2-dihydro-",482-89-3,O=C1C(Nc2ccccc12)=C3Nc4ccccc4C3=O,O=C1C(=C2Nc3ccccc3C2=O)Nc2ccccc21,3.388,-3.929,3.478,-11.255,11.275
"Toluene-3,4-diamine",496-72-0,Cc1ccc(N)c(N)c1,Cc1ccc(N)c(N)c1,0.006,-1.6119999999999999,0.688,-10.049,5.717
Sodium carbonate,497-19-8,[Na+].[Na+].[O-]C([O-])=O,O=C([O-])[O-].[Na+].[Na+],-1.485,-0.62,0.321,-4.328,0.415
"m-Cresol, 4,6,-di-tert-butyl-",497-39-2,Cc1cc(O)c(cc1C(C)(C)C)C(C)(C)C,Cc1cc(O)c(C(C)(C)C)cc1C(C)(C)C,5.593,-4.618,4.831,-3.7119999999999997,11.077
"Formic acid, chloro-, benzyl ester",501-53-1,ClC(=O)OCc1ccccc1,O=C(Cl)OCc1ccccc1,2.873,-2.695,2.717,-4.025,2.228
2-Oxepanone,502-44-3,O=C1CCCCCO1,O=C1CCCCCO1,1.225,-1.028,0.274,-4.2410000000000005,8.051
"2-Pentadecanone, 6,10,14-trimethyl-",502-69-2,CC(C)CCCC(C)CCCC(C)CCCC(C)=O,CC(=O)CCCC(C)CCCC(C)CCCC(C)C,4.851,-4.378,6.81,-0.228,10.157
"1,3-Pentadiene",504-60-9,CC=CC=C,C=CC=CC,0.365,-1.281,2.406,0.24,4.066
"1,3-Propanediol",504-63-2,OCCCO,OCCCO,-1.5719999999999998,0.382,-0.878,-9.843,10.653
"1-Hexadecen-3-ol, 3,7,11,15-tetramethyl-",505-32-8,CC(C)CCCC(C)CCCC(C)CCCC(C)(O)C=C,C=CC(C)(O)CCCC(C)CCCC(C)CCCC(C)C,4.6160000000000005,-4.646,7.38,-1.222,8.437
Tridecanedioic acid,505-52-2,OC(=O)CCCCCCCCCCCC(O)=O,O=C(O)CCCCCCCCCCCC(=O)O,0.631,-3.0039999999999996,2.745,-6.195,4.861
"1,3-Dioxepane",505-65-7,C1CCOCOC1,C1CCOCOC1,0.396,-0.076,0.309,-4.96,12.644
Eicosanoic acid,506-30-9,CCCCCCCCCCCCCCCCCCCC(O)=O,CCCCCCCCCCCCCCCCCCCC(=O)O,3.905,-5.042,8.286,-2.371,5.415
potassium dicyanoargentate,506-61-6,[K+].[Ag+].[C-]#N.[C-]#N,[Ag+].[C-]#N.[C-]#N.[K+],-0.036000000000000004,-0.7559999999999999,0.515,-4.131,1.434
Diammonium carbonate,506-87-6,[NH4+].[NH4+].[O-]C([O-])=O,O=C([O-])[O-].[NH4+].[NH4+],-2.143,-0.264,-0.28600000000000003,-3.467,15.759
"Guanidine, mononitrate",506-93-4,NC(N)=N.O[N+]([O-])=O,N=C(N)N.O=[N+]([O-])O,-4.845,1.143,-2.334,-11.892000000000001,7.602
"1,3-dichloro-1,1,2,2,3-pentafluoropropane",507-55-1,FC(Cl)C(F)(F)C(F)(F)Cl,FC(Cl)C(F)(F)C(F)(F)Cl,4.104,-3.484,2.685,1.2919999999999998,10.408
Trimethyl phosphate,512-56-1,CO[P](=O)(OC)OC,COP(=O)(OC)OC,2.233,-0.15,-0.877,-8.374,1.052
"2-Butene, 2-methyl-",513-35-9,CC=C(C)C,CC=C(C)C,2.129,-2.0140000000000002,2.64,0.8740000000000001,6.809
2-Butanethiol,513-53-1,CCC(C)S,CCC(C)S,0.311,-1.7519999999999998,1.856,-1.36,12.031
Barium carbonate,513-77-9,[Ba++].[O-]C([O-])=O,O=C([O-])[O-].[Ba+2],-1.536,-0.36200000000000004,0.7040000000000001,-4.43,14.856
"Benzene, (2-chloro-1,1-dimethylethyl)-",515-40-2,CC(C)(CCl)c1ccccc1,CC(C)(CCl)c1ccccc1,4.791,-4.252,4.251,-1.649,6.655
Sodium sulphanilate,515-74-2,[Na+].Nc1ccc(cc1)[S]([O-])(=O)=O,Nc1ccc(S(=O)(=O)[O-])cc1.[Na+],0.141,-1.452,0.614,-10.790999999999999,4.244
alpha-acetyl-gamma-butyrolactone,517-23-7,CC(=O)C1CCOC1=O,CC(=O)C1CCOC1=O,-0.88,-0.643,-0.491,-7.83,8.032
"Phenol, 2,3-dimethyl-",526-75-0,Cc1cccc(O)c1C,Cc1cccc(O)c1C,3.102,-2.372,2.451,-5.513,9.802
D-Gluconic acid,526-95-4,OC[C@@H](O)[C@@H](O)[C@H](O)[C@@H](O)C(O)=O,O=C(O)[C@H](O)[C@@H](O)[C@H](O)[C@H](O)CO,-2.9210000000000003,0.5,-3.66,-23.488000000000003,3.436
"Gluconic acid, monosodium salt",527-07-1,[Na+].OCC(O)C(O)C(O)C(O)C([O-])=O,O=C([O-])C(O)C(O)C(O)C(O)CO.[Na+],-2.239,0.213,-2.471,-18.533,2.273
"Benzene, 1,2,3,5-tetramethyl-",527-53-7,Cc1cc(C)c(C)c(C)c1,Cc1cc(C)c(C)c(C)c1,4.619,-3.678,4.134,-1.3780000000000001,6.18
"Phenol, 2,4,6-teimethyl-",527-60-6,Cc1cc(C)c(O)c(C)c1,Cc1cc(C)c(O)c(C)c1,3.651,-2.957,2.858,-5.151,11.951
"1,2,4-Benzenetricarboxylic acid",528-44-9,OC(=O)c1ccc(C(O)=O)c(c1)C(O)=O,O=C(O)c1ccc(C(=O)O)c(C(=O)O)c1,-3.235,-2.113,1.385,-13.005999999999998,3.254
"1(2H)-Naphthalenone, 3,4-dihydro-",529-34-0,O=C1CCCc2ccccc12,O=C1CCCc2ccccc21,2.957,-2.589,2.218,-5.875,8.548
Sodium benzoate,532-32-1,[Na+].[O-]C(=O)c1ccccc1,O=C([O-])c1ccccc1.[Na+],1.797,-2.3280000000000003,1.919,-5.013999999999999,-2.126
Dazomet,533-74-4,CN1CSC(=S)N(C)C1,CN1CSC(=S)N(C)C1,-0.711,-0.929,0.478,-8.937000000000001,5.056
"Carbonic acid, sodium salt (2:3)",533-96-0,[Na+].[Na+].[Na+].OC([O-])=O.[O-]C([O-])=O,O=C([O-])O.O=C([O-])[O-].[Na+].[Na+].[Na+],-3.179,-0.23399999999999999,-0.174,-5.603,0.556
6-O-alpha-D-Glucopyranosyl-D-glucitol,534-73-6,OC[C@H](O)[C@@H](O)[C@H](O)[C@H](O)CO[C@H]1O[C@H](CO)[C@@H](O)[C@H](O)[C@H]1O,OC[C@H](O)[C@@H](O)[C@H](O)[C@H](O)CO[C@H]1O[C@H](CO)[C@@H](O)[C@H](O)[C@H]1O,-1.696,0.34,-3.745,-22.215999999999998,6.04
"Aniline, 3-methoxy-",536-90-3,COc1cccc(N)c1,COc1cccc(N)c1,0.698,-1.7830000000000001,1.028,-7.558,4.493
Cerium (3+) carbonate,537-01-9,[Ce+3].[Ce+3].[O-]C([O-])=O.[O-]C([O-])=O.[O-]C([O-])=O,O=C([O-])[O-].O=C([O-])[O-].O=C([O-])[O-].[Ce+3].[Ce+3],-1.725,-0.204,0.48,-4.21,16.368
"1,2,3-Propanetriyl octanoate",538-23-8,CCCCCCCC(=O)OCC(COC(=O)CCCCCCC)OC(=O)CCCCCCC,CCCCCCCC(=O)OCC(COC(=O)CCCCCCC)OC(=O)CCCCCCC,5.075,-4.711,6.4270000000000005,-3.705,7.827
"Benzene, (2-methylpropyl)-",538-93-2,CC(C)Cc1ccccc1,CC(C)Cc1ccccc1,4.399,-3.7289999999999996,4.448,-0.654,4.742
Ammonium formate,540-69-2,[NH4+].[O-]C=O,O=C[O-].[NH4+],-2.04,-0.08,-0.016,-3.653,10.001
Sodium thiocyanate,540-72-7,[Na+].[S-]C#N,N#C[S-].[Na+],-0.57,-0.6679999999999999,1.104,-4.7139999999999995,-0.424
"Pentane, 2,2,4-trimethyl-",540-84-1,CC(C)CC(C)(C)C,CC(C)CC(C)(C)C,4.8210000000000015,-3.0789999999999997,4.378,2.412,10.622
"Acetic acid, 1,1-dimethylethyl ester",540-88-5,CC(=O)OC(C)(C)C,CC(=O)OC(C)(C)C,3.464,-1.528,1.423,-2.775,12.377
"Cyclohexasiloxane, dodecamethyl-",540-97-6,C[Si]1(C)O[Si](C)(C)O[Si](C)(C)O[Si](C)(C)O[Si](C)(C)O[Si](C)(C)O1,C[Si]1(C)O[Si](C)(C)O[Si](C)(C)O[Si](C)(C)O[Si](C)(C)O[Si](C)(C)O1,0.23,-0.53,8.39,-4.938,14.128
"Cyclopentasiloxane, decamethyl-",541-02-6,C[Si]1(C)O[Si](C)(C)O[Si](C)(C)O[Si](C)(C)O[Si](C)(C)O1,C[Si]1(C)O[Si](C)(C)O[Si](C)(C)O[Si](C)(C)O[Si](C)(C)O1,0.23,-0.53,8.39,-4.938,14.128
"Cyclotrisiloxane, hexamethyl-",541-05-9,C[Si]1(C)O[Si](C)(C)O[Si](C)(C)O1,C[Si]1(C)O[Si](C)(C)O[Si](C)(C)O1,0.23,-0.53,8.39,-4.938,14.128
"Carbonochloridic acid, ethyl ester",541-41-3,CCOC(Cl)=O,CCOC(=O)Cl,1.285,-0.823,1.396,-2.6289999999999996,4.967
"Benzene, 1,3-dichloro-",541-73-1,Clc1cccc(Cl)c1,Clc1cccc(Cl)c1,4.306,-3.593,3.469,-0.986,5.555
chlorocyclohexane,542-18-7,ClC1CCCCC1,ClC1CCCCC1,5.2879999999999985,-2.78,2.9360000000000004,0.133,7.317
Calcium dipalmitate,542-42-7,[Ca++].CCCCCCCCCCCCCCCC([O-])=O.CCCCCCCCCCCCCCCC([O-])=O,CCCCCCCCCCCCCCCC(=O)[O-].CCCCCCCCCCCCCCCC(=O)[O-].[Ca+2],4.985,-4.7330000000000005,7.997999999999998,-1.791,8.445
"Propene, 1,3-dichloro-",542-75-6,ClCC=CCl,ClC=CCCl,4.035,-1.744,1.914,-1.23,9.687
"1,3-Cyclopentadiene",542-92-7,C1C=CC=C1,C1=CCC=C1,1.392,-1.347,2.28,-0.321,-0.438
"7-Octen-2-ol, 2-methyl-6-methylene-",543-39-5,CC(C)(O)CCCC(=C)C=C,C=CC(=C)CCCC(C)(C)O,1.598,-2.508,1.993,-4.507,11.549
Calcium diformate,544-17-2,[Ca++].[O-]C=O.[O-]C=O,O=C[O-].O=C[O-].[Ca+2],-1.592,-0.094,0.66,-4.33,8.502
Myristic acid,544-63-8,CCCCCCCCCCCCCC(O)=O,CCCCCCCCCCCCCC(=O)O,2.8710000000000004,-4.078,5.943,-3.127,5.04
Hexadecane,544-76-3,CCCCCCCCCCCCCCCC,CCCCCCCCCCCCCCCC,5.461,-5.409,8.824,0.799,7.078
Titanium tetraisopropanolate,546-68-9,[Ti+4].CC(C)[O-].CC(C)[O-].CC(C)[O-].CC(C)[O-],CC(C)[O-].CC(C)[O-].CC(C)[O-].CC(C)[O-].[Ti+4],3.1180000000000003,-1.171,1.274,-1.7519999999999998,13.34
Magnesium carbonate,546-93-0,[Mg++].[O-]C([O-])=O,O=C([O-])[O-].[Mg+2],-1.591,-0.34600000000000003,0.5760000000000001,-4.408,13.679
"Phthalimide, N-methyl-",550-44-7,CN1C(=O)c2ccccc2C1=O,CN1C(=O)c2ccccc2C1=O,1.17,-2.3169999999999997,1.35,-10.988,8.113
6-Aminopenicillanic acid,551-16-6,CC1(C)S[C@@H]2[C@H](N)C(=O)N2[C@H]1C(O)=O,CC1(C)S[C@@H]2[C@H](N)C(=O)N2[C@H]1C(=O)O,-1.38,-1.8019999999999998,-0.875,-14.293,2.253
"1,2,4-Benzenetricarboxylic acid, cyclic-1,2-anhydride",552-30-7,OC(=O)c1ccc2C(=O)OC(=O)c2c1,O=C(O)c1ccc2c(c1)C(=O)OC2=O,-0.318,-2.6719999999999997,1.514,-10.434000000000001,3.278
"4,4'-Bipyridine",553-26-4,c1cc(ccn1)c2ccncc2,c1cc(-c2ccncc2)ccn1,1.291,-2.96,1.525,-7.155,5.653
Lithium carbonate,554-13-2,[Li+].[Li+].[O-]C([O-])=O,O=C([O-])[O-].[Li+].[Li+],-1.408,-0.6659999999999999,0.5579999999999999,-4.279,4.293
"2-Propanol, aluminum salt",555-31-7,[Al+3].CC(C)[O-].CC(C)[O-].CC(C)[O-],CC(C)[O-].CC(C)[O-].CC(C)[O-].[Al+3],3.079,-1.1909999999999998,1.2819999999999998,-1.7919999999999998,13.022
"Ethanol, aluminum salt",555-75-9,[Al+3].CC[O-].CC[O-].CC[O-],CC[O-].CC[O-].CC[O-].[Al+3],2.073,-0.9470000000000001,0.7,-2.2680000000000002,14.501
"Cyclotetrasiloxane, octamethyl-",556-67-2,C[Si]1(C)O[Si](C)(C)O[Si](C)(C)O[Si](C)(C)O1,C[Si]1(C)O[Si](C)(C)O[Si](C)(C)O[Si](C)(C)O1,0.23,-0.53,8.39,-4.938,14.128
"2-Buten-1-ol, 3-methyl-",556-82-1,CC(C)=CCO,CC(C)=CCO,0.527,-1.135,1.418,-5.321000000000001,14.257
Magnesium stearate,557-04-0,[Mg++].CCCCCCCCCCCCCCCCCC([O-])=O.CCCCCCCCCCCCCCCCCC([O-])=O,CCCCCCCCCCCCCCCCCC(=O)[O-].CCCCCCCCCCCCCCCCCC(=O)[O-].[Mg+2],5.084,-5.018,8.584,-1.641,8.34
Zinc stearate,557-05-1,[Zn++].CCCCCCCCCCCCCCCCCC([O-])=O.CCCCCCCCCCCCCCCCCC([O-])=O,CCCCCCCCCCCCCCCCCC(=O)[O-].CCCCCCCCCCCCCCCCCC(=O)[O-].[Zn+2],5.105,-5.013,8.592,-1.656,8.629
"1-Butene, 3,3-dimethyl-",558-37-2,CC(C)(C)C=C,C=CC(C)(C)C,4.222,-2.592,3.491,1.6880000000000002,6.834
"Aluminum, dichloroethyl-",563-43-9,[AlH2]CC(Cl)Cl,[AlH2]CC(Cl)Cl,2.905,-1.676,1.605,-3.8139999999999996,11.616
"Propene, 3-chloro-2-methyl-",563-47-3,CC(=C)CCl,C=C(C)CCl,3.489,-1.67,2.007,-1.3730000000000002,12.016
"Ethanedioic acid, calcium salt (1:1)",563-72-4,[Ca++].[O-]C(=O)C([O-])=O,O=C([O-])C(=O)[O-].[Ca+2],-1.473,-0.381,-0.044,-7.756,9.549
"2-Butanone, 3-methyl-",563-80-4,CC(C)C(C)=O,CC(=O)C(C)C,-0.118,-0.892,0.8009999999999999,-3.674,14.13
"3-Pentene-2-one, 3-methyl-",565-62-8,CC=C(C)C(C)=O,CC=C(C)C(C)=O,0.3,-1.068,1.068,-4.813,11.612
"Phenol, 2,6-dimethyl-",576-26-1,Cc1cccc(C)c1O,Cc1cccc(C)c1O,2.824,-2.42,2.426,-5.282,10.357
Docusate sodium,577-11-7,[Na+].CCCCC(CC)COC(=O)CC(C(=O)OCC(CC)CCCC)[S]([O-])(=O)=O,CCCCC(CC)COC(=O)CC(C(=O)OCC(CC)CCCC)S(=O)(=O)[O-].[Na+],3.642,-4.013,5.14,-4.867,6.957
"Benzenamine, 2-ethyl-",578-54-1,CCc1ccccc1N,CCc1ccccc1N,1.013,-2.1830000000000003,1.932,-5.5729999999999995,4.398
"Aniline, 2,6-diethyl-",579-66-8,CCc1cccc(CC)c1N,CCc1cccc(CC)c1N,2.281,-2.8339999999999996,3.015,-5.196000000000001,4.687
Potassium benzoate,582-25-2,[K+].[O-]C(=O)c1ccccc1,O=C([O-])c1ccccc1.[K+],1.928,-2.322,1.939,-5.001,5.214
"2-Methylcyclohexanol, mixed isomers",583-59-5,CC1CCCCC1O,CC1CCCCC1O,1.2919999999999998,-1.781,2.137,-4.435,7.537
"Phenol, 2,5-dichloro-",583-78-8,Oc1cc(Cl)ccc1Cl,Oc1cc(Cl)ccc1Cl,3.333,-3.123,3.113,-6.059,7.231
"Butyric acid, 2-hydroxy-4-(methylthio)-",583-91-5,CSCCC(O)C(O)=O,CSCCC(O)C(=O)O,-2.053,-0.465,-0.037000000000000005,-11.790999999999999,3.699
"1,2-Butylene glycol",584-03-2,CCC(O)CO,CCC(O)CO,-1.2819999999999998,0.063,-0.415,-10.302,10.898
Potassium carbonate,584-08-7,[K+].[K+].[O-]C([O-])=O,O=C([O-])[O-].[K+].[K+],-1.22,-0.601,0.378,-4.329,10.072
"Benzene, 2,4-disocyanato-1-methyl-",584-84-9,Cc1ccc(cc1N=C=O)N=C=O,Cc1ccc(N=C=O)cc1N=C=O,0.157,-2.36,2.604,-8.934,4.152
tert-butyl methacrylate,585-07-9,CC(=C)C(=O)OC(C)(C)C,C=C(C)C(=O)OC(C)(C)C,4.7010000000000005,-2.675,2.633,-3.81,7.74
3-tert-butylphenol,585-34-2,CC(C)(C)c1cccc(O)c1,CC(C)(C)c1cccc(O)c1,4.474,-3.3310000000000004,3.59,-5.172000000000001,9.317
4-O-beta-D-Galactopyranosyl-D-glucitol,585-86-4,OC[C@H](O)[C@@H](O)[C@H](O[C@@H]1O[C@H](CO)[C@H](O)[C@H](O)[C@H]1O)[C@H](O)CO,OC[C@H](O)[C@@H](O)[C@H](O[C@@H]1O[C@H](CO)[C@H](O)[C@H](O)[C@H]1O)[C@H](O)CO,-1.6880000000000002,0.316,-3.697,-21.776999999999997,5.901
4-O-alpha-D-Glucopyranosyl-D-glucitol,585-88-6,OC[C@H](O)[C@@H](O)[C@H](O[C@H]1O[C@H](CO)[C@@H](O)[C@H](O)[C@H]1O)[C@H](O)CO,OC[C@H](O)[C@@H](O)[C@H](O[C@H]1O[C@H](CO)[C@@H](O)[C@H](O)[C@H]1O)[C@H](O)CO,-1.841,0.287,-3.754,-21.999000000000002,5.847
"Cyclohexene, 1-methyl-4-(1-methylethylidene)-",586-62-9,CC(C)=C1CCC(=CC1)C,CC1=CCC(=C(C)C)CC1,4.216,-3.04,4.237,-1.3419999999999999,8.727
"2,4-Hexadienoic acid, potassium salt",590-00-1,[K+].C/C=C/C=C/C([O-])=O,C/C=C/C=C/C(=O)[O-].[K+],0.575,-1.385,1.844,-6.13,7.129
Butyl propanoate,590-01-2,CCCCOC(=O)CC,CCCCOC(=O)CC,3.778,-1.8330000000000002,1.997,-2.642,9.673
"2-Butene, (2Z)-",590-18-1,C\C=C/C,C/C=C\C,2.436,-1.739,2.053,1.601,5.918
"1,2-Butadiene",590-19-2,C[CH]=[C]=[CH2],C=C=CC,-0.157,-0.7709999999999999,1.898,-0.619,6.099
Potassium cyanate,590-28-3,[K+].[O-]C#N,N#C[O-].[K+],-0.889,-0.25,0.517,-5.257999999999999,7.216
Potassium formate,590-29-4,[K+].[O-]C=O,O=C[O-].[K+],-1.352,-0.33399999999999996,0.464,-4.317,6.436
"Butanal, 3-methyl-",590-86-3,CC(C)CC=O,CC(C)CC=O,3.323,-1.416,1.753,-1.874,10.136
"Phenol, 3-amino-",591-27-5,Nc1cccc(O)c1,Nc1cccc(O)c1,0.7240000000000001,-1.421,0.28600000000000003,-11.129000000000001,8.347
Butyl carbamate,592-35-8,CCCCOC(N)=O,CCCCOC(N)=O,2.131,-0.97,0.7040000000000001,-6.707999999999999,11.661
1-Hexene,592-41-6,CCCCC=C,C=CCCCC,4.405,-2.178,3.536,1.535,4.805