chemical_name,cas,smiles,canonical_smiles,log_p,log_s,kow,water-energy,pka
Calcium thiobis-(dodecylphenolate),26998-97-0,[Ca++].CCCCCCCCCCCCc1cccc([O-])c1Sc2c([O-])cccc2CCCCCCCCCCCC,CCCCCCCCCCCCc1cccc([O-])c1Sc1c([O-])cccc1CCCCCCCCCCCC.[Ca+2],4.65,-6.604,10.165,-2.4090000000000003,10.388
"Phosphorodithioic acid, O,O-diisooctyl ester",26999-29-1,CC(C)CCCCCO[P]([S-])(=S)OCCCCCC(C)C,CC(C)CCCCCOP(=S)([S-])OCCCCCC(C)C,5.117,-5.07,7.693,-2.569,5.82
Octadecene,27070-58-2,CCCCCCCCCCCCCCCCC=C,C=CCCCCCCCCCCCCCCCC,5.4110000000000005,-5.622000000000001,9.398,0.425,7.088
"1,6-Hexanediamine, N,N,N',N'-tetrabutyl-",27090-63-7,CCCCN(CCCC)CCCCCCN(CCCC)CCCC,CCCCN(CCCC)CCCCCCN(CCCC)CCCC,2.417,-4.8210000000000015,5.822,-4.1419999999999995,10.755
"2-Ethylhexyl 10-ethyl-4-[[2-[(2-ethylhexyl)oxy]-2-oxoethyl]thio]-4-octyl-7-oxo-8-oxa-3,5-dithia-4-stannatetradecanoate",27107-89-7,CCCCCCCC[Sn](SCC(=O)OCC(CC)CCCC)(SCC(=O)OCC(CC)CCCC)SCC(=O)OCC(CC)CCCC,CCCCCCCC[Sn](SCC(=O)OCC(CC)CCCC)(SCC(=O)OCC(CC)CCCC)SCC(=O)OCC(CC)CCCC,5.1370000000000005,-5.492000000000001,7.579,-3.102,7.151
"Propanol, oxybis-, dibenzoate",27138-31-4,OCCCOCCCO.OC(=O)c1ccccc1.OC(=O)c2ccccc2,O=C(O)c1ccccc1.O=C(O)c1ccccc1.OCCCOCCCO,-0.387,-1.476,0.657,-8.565,4.79
"Benzenesulfonic acid, dodecyl-",27176-87-0,CCCCCCCCCCCCc1ccccc1[S](O)(=O)=O,CCCCCCCCCCCCc1ccccc1S(=O)(=O)O,4.124,-4.4319999999999995,3.26,-5.785,0.441
Di(isodecyl) adipate,27178-16-1,CC(C)CCCCCCCOC(=O)CCCCC(=O)OCCCCCCCC(C)C,CC(C)CCCCCCCOC(=O)CCCCC(=O)OCCCCCCCC(C)C,5.511,-5.008,7.148,-2.3080000000000003,7.451
"Phenol, dodecyl-",27193-86-8,CCCCCCCCCCCCc1ccccc1O,CCCCCCCCCCCCc1ccccc1O,4.5539999999999985,-5.356,7.761,-2.9419999999999997,8.949
Tetradecanol,27196-00-5,CCCCCCCCCCCCCCO,CCCCCCCCCCCCCCO,4.3210000000000015,-4.401,6.319,-2.019,7.866
Nonene,27215-95-8,CCCCCCCC=C,C=CCCCCCCC,4.995,-3.658,5.1629999999999985,1.032,5.602
".alpha.-D-Glucopyranoside, .beta.-D-fructofuranosyl, diacetate hexakis(2-methylpropanoate)",27216-37-1,CC(C)C(=O)OC[C@]1(O[C@H](COC(C)=O)[C@@H](OC(=O)C(C)C)[C@@H]1OC(=O)C(C)C)O[C@H]2O[C@H](COC(C)=O)[C@@H](OC(=O)C(C)C)[C@H](OC(=O)C(C)C)[C@H]2OC(=O)C(C)C,CC(=O)OC[C@H]1O[C@H](O[C@]2(COC(=O)C(C)C)O[C@H](COC(C)=O)[C@@H](OC(=O)C(C)C)[C@@H]2OC(=O)C(C)C)[C@H](OC(=O)C(C)C)[C@@H](OC(=O)C(C)C)[C@@H]1OC(=O)C(C)C,2.217,-2.904,4.257,-8.641,8.884
2-Ethylhexyl nitrate,27247-96-7,CCCCC(CC)CO[N+]([O-])=O,CCCCC(CC)CO[N+](=O)[O-],3.951,-3.234,4.641,-1.462,6.073
Pentadecene,27251-68-9,CCCCCCCCCCCCCC=C,C=CCCCCCCCCCCCCC,5.329,-5.237,8.445,0.547,6.808
Triisooctyl trimellitate,27251-75-8,CC(C)CCCCCOC(=O)c1ccc(C(=O)OCCCCCC(C)C)c(c1)C(=O)OCCCCCC(C)C,CC(C)CCCCCOC(=O)c1ccc(C(=O)OCCCCCC(C)C)c(C(=O)OCCCCCC(C)C)c1,5.247000000000001,-6.053,8.433,-3.9360000000000004,6.125
Di(isotridecyl) phthalate,27253-26-5,CC(C)CCCCCCCCCCOC(=O)c1ccccc1C(=O)OCCCCCCCCCCC(C)C,CC(C)CCCCCCCCCCOC(=O)c1ccccc1C(=O)OCCCCCCCCCCC(C)C,5.308,-6.282,9.448,-2.765,7.265
Cobalt neodecanoate,27253-31-2,[Co++].CC(C)(C)CCCCCC([O-])=O.CC(C)(C)CCCCCC([O-])=O,CC(C)(C)CCCCCC(=O)[O-].CC(C)(C)CCCCCC(=O)[O-].[Co+2],4.41,-3.055,4.252,-2.23,10.566
(6R-trans)-3-methyl-8-oxo-7-(phenylacetamido)-5-thia-1-azabicyclo[4.2.0]oct-2-ene-2-carboxylic acid,27255-72-7,CC1=C(N2[C@H](SC1)[C@H](NC(=O)Cc3ccccc3)C2=O)C(O)=O,CC1=C(C(=O)O)N2C(=O)[C@@H](NC(=O)Cc3ccccc3)[C@H]2SC1,0.117,-2.424,0.82,-11.857999999999999,3.891
"Benzenesulfonic acid, dodecyl-, compd. With 2,2',2''-nitrilotris[ethanol](1:1)",27323-41-7,CCCCCCCCCCCCc1ccccc1[S](O)(=O)=O.OCCN(CCO)CCO,CCCCCCCCCCCCc1ccccc1S(=O)(=O)O.OCCN(CCO)CCO,1.7180000000000002,-2.7110000000000003,0.7190000000000001,-8.245,4.135
"Disodium 2,2'-([1,1'-biphenyl]-4,4'-diyldivinylene)bis(benzenesulphonate)",27344-41-8,[Na+].[Na+].[O-][S](=O)(=O)c1ccccc1C=Cc2ccc(cc2)c3ccc(cc3)C=Cc4ccccc4[S]([O-])(=O)=O,O=S(=O)([O-])c1ccccc1C=Cc1ccc(-c2ccc(C=Cc3ccccc3S(=O)(=O)[O-])cc2)cc1.[Na+].[Na+],3.583,-4.349,4.987,-7.779,4.579
N-[4-[(2-Hydroxyethyl)sulphonyl]phenyl] acetamide,27375-52-6,CC(=O)Nc1ccc(cc1)[S](=O)(=O)CCO,CC(=O)Nc1ccc(S(=O)(=O)CCO)cc1,-0.066,-1.867,-0.124,-12.567,8.773
1-Isotridecanol,27458-92-0,CC(C)CCCCCCCCCCO,CC(C)CCCCCCCCCCO,4.125,-4.065,5.557,-1.835,8.447
Isononanol,27458-94-2,CC(C)CCCCCCO,CC(C)CCCCCCO,3.18,-2.694,3.448,-2.479,8.43
"Phosphoric acid, dodecyl diphenyl ester",27460-02-2,CCCCCCCCCCCCO[P](=O)(Oc1ccccc1)Oc2ccccc2,CCCCCCCCCCCCOP(=O)(Oc1ccccc1)Oc1ccccc1,4.532,-5.891,7.104,-4.56,4.511
Di(isooctyl) phthalate,27554-26-3,CC(C)CCCCCOC(=O)c1ccccc1C(=O)OCCCCCC(C)C,CC(C)CCCCCOC(=O)c1ccccc1C(=O)OCCCCCC(C)C,5.082,-5.822,7.451,-3.6189999999999998,7.051
"1,3,4-Thiadiazole, 2-(methylsulfonyl)-5-(trifluoromethyl)-",27603-25-4,C[S](=O)(=O)c1sc(nn1)C(F)(F)F,CS(=O)(=O)c1nnc(C(F)(F)F)s1,-0.5770000000000001,-2.262,1.25,-5.8420000000000005,4.855
"1,3,5-Triazine-2,4,6(1H,3H,5H)-trione, 1,3,5-tris[[3,5-bis(1,1-dimethylethyl)-4-hydroxyphenyl]methyl]-",27676-62-6,CC(C)(C)c1cc(CN2C(=O)N(Cc3cc(c(O)c(c3)C(C)(C)C)C(C)(C)C)C(=O)N(Cc4cc(c(O)c(c4)C(C)(C)C)C(C)(C)C)C2=O)cc(c1O)C(C)(C)C,CC(C)(C)c1cc(Cn2c(=O)n(Cc3cc(C(C)(C)C)c(O)c(C(C)(C)C)c3)c(=O)n(Cc3cc(C(C)(C)C)c(O)c(C(C)(C)C)c3)c2=O)cc(C(C)(C)C)c1O,5.047,-5.154,5.244,-8.531,10.239
"Benzene, methyl(phenylmethyl)-",27776-01-8,Cc1ccccc1Cc2ccccc2,Cc1ccccc1Cc1ccccc1,4.059,-4.069,4.672,-2.503,5.0
"Methacrylic acid, monoester with propane-1,2-diol",27813-02-1,CC(CO)OC(=O)C(C)=C,C=C(C)C(=O)OC(C)CO,1.275,-1.45,1.006,-7.409,10.582
"Butanedioic acid, (tetrapropenyl)-",27859-58-1,CC=CC(C=CC)(C(O)=O)C(C=CC)(C=CC)C(O)=O,CC=CC(C=CC)(C(=O)O)C(C=CC)(C=CC)C(=O)O,-0.5720000000000001,-5.287000000000001,2.929,-10.761,2.904
"3-Pentanone, 1-hydroxy-2-methyl-",27970-79-2,CCC(=O)C(C)CO,CCC(=O)C(C)CO,-0.12,-0.593,0.116,-7.686,11.76
"Styrene, ethyl-",28106-30-1,CCC=Cc1ccccc1,CCC=Cc1ccccc1,3.54,-3.245,4.005,-1.5219999999999998,1.39
Calcium (S)-2-hydroxy-propanate,28305-25-1,[Ca++].C[C@H](O)C([O-])=O.C[C@H](O)C([O-])=O,C[C@H](O)C(=O)[O-].C[C@H](O)C(=O)[O-].[Ca+2],-1.409,-0.027000000000000003,-0.16,-10.658,9.319
Pinanyl hydroperoxide,28324-52-9,CC1CCC2CC1(OO)C2(C)C,CC1CCC2CC1(OO)C2(C)C,3.408,-3.6239999999999997,3.465,-5.027,11.001
Sodium cumenesulfonate,28348-53-0,[Na+].CC(C)c1ccccc1[S]([O-])(=O)=O,CC(C)c1ccccc1S(=O)(=O)[O-].[Na+],3.142,-2.627,2.353,-6.43,4.009
Diisodecyl azelate,28472-97-1,CC(C)CCCCCCCOC(=O)CCCCCCCC(=O)OCCCCCCCC(C)C,CC(C)CCCCCCCOC(=O)CCCCCCCC(=O)OCCCCCCCC(C)C,5.694,-5.2360000000000015,7.786,-2.173,7.771
Nonanol,28473-21-4,CCCCCCCCCO,CCCCCCCCCO,3.305,-2.8080000000000003,3.63,-2.909,7.546
"Benzene, 2-chloro-4-isocyanato-1-methyl-",28479-22-3,Cc1ccc(cc1Cl)N=C=O,Cc1ccc(N=C=O)cc1Cl,2.974,-3.028,3.482,-6.276,4.733
"Hexanoic acid, 2-ethyl-, 2,2-dimethyl-1,3-propanediyl ester",28510-23-8,CCCCC(CC)C(=O)OCC(C)(C)COC(=O)C(CC)CCCC,CCCCC(CC)C(=O)OCC(C)(C)COC(=O)C(CC)CCCC,6.001,-4.678,5.752999999999999,-3.267,8.553
"Benzenesulfonic acid, dodecyl(sulfophenoxy)-, disodium salt",28519-02-0,[Na+].[Na+].CCCCCCCCCCCCc1c(Oc2ccccc2[S]([O-])(=O)=O)cccc1[S]([O-])(=O)=O,CCCCCCCCCCCCc1c(Oc2ccccc2S(=O)(=O)[O-])cccc1S(=O)(=O)[O-].[Na+].[Na+],3.789,-4.928,6.247000000000001,-6.131,4.846
Di(isononyl) phthalate,28553-12-0,CC(C)CCCCCCOC(=O)c1ccccc1C(=O)OCCCCCCC(C)C,CC(C)CCCCCCOC(=O)c1ccccc1C(=O)OCCCCCCC(C)C,5.157,-5.9460000000000015,7.954,-3.412,6.84
"Zinc, dithiophosphate bis(iso-octyl)",28629-66-5,[Zn++].CC(C)CCCCCO[P]([S-])(=S)OCCCCCC(C)C.CC(C)CCCCCO[P]([S-])(=S)OCCCCCC(C)C,CC(C)CCCCCOP(=S)([S-])OCCCCCC(C)C.CC(C)CCCCCOP(=S)([S-])OCCCCCC(C)C.[Zn+2],5.0539999999999985,-4.9910000000000005,7.567,-2.6639999999999997,5.854
"Benzenesulphonic acid, 2-(or 4)-(isopropyl)-",28631-63-2,CC(C)c1ccc(cc1)[S](O)(=O)=O,CC(C)c1ccc(S(=O)(=O)O)cc1,2.291,-1.984,-0.643,-9.621,-3.867
"Oxiranemethanamine, N,N'-(methylenedi-4,1-phenylene)bis[N-(oxiranylmethyl)-",28768-32-3,C1OC1CN(CC2CO2)c3ccc(Cc4ccc(cc4)N(CC5CO5)CC6CO6)cc3,c1cc(N(CC2CO2)CC2CO2)ccc1Cc1ccc(N(CC2CO2)CC2CO2)cc1,3.784,-4.948,5.1320000000000014,-9.367,0.443
"2,5-Furandione, dihydro-3-(octadecenyl)-",28777-98-2,CCCCCCCCCCCCCCCCC=CC1CC(=O)OC1=O,CCCCCCCCCCCCCCCCC=CC1CC(=O)OC1=O,4.217,-4.7669999999999995,8.156,-2.966,5.22
"Butanedioic acid, octenyl-",28805-58-5,CCCCCCC=CC(CC(O)=O)C(O)=O,CCCCCCC=CC(CC(=O)O)C(=O)O,-1.609,-2.403,3.019,-7.7379999999999995,4.235
"Benzenesulphonic acid, octadecyl-",28855-17-6,CCCCCCCCCCCCCCCCCCc1ccccc1[S](O)(=O)=O,CCCCCCCCCCCCCCCCCCc1ccccc1S(=O)(=O)O,4.607,-5.182,5.698,-4.672,2.256
"Benzothiazole, 2-[(chloromethyl)thio]-",28908-00-1,ClCSc1sc2ccccc2n1,ClCSc1nc2ccccc2s1,4.159,-4.702,3.944,-5.093,4.144
"Poly(oxy-1,2-ethanediyl), .alpha.-hydro-.omega.-[(1-oxo-2-propenyl)oxy]-, etherwith 2-ethyl-2-(hydroxymethyl)-1,3-propanediol (3:1)",28961-43-5,CCC(COCCOC(=O)C=C)(COCCOC(=O)C=C)COCCOC(=O)C=C,C=CC(=O)OCCOCC(CC)(COCCOC(=O)C=C)COCCOC(=O)C=C,2.233,-3.0860000000000003,2.461,-7.444,11.569
"Phenol, nonyl-, barium salt",28987-17-9,[Ba++].CCCCCCCCCc1ccccc1[O-].CCCCCCCCCc2ccccc2[O-],CCCCCCCCCc1ccccc1[O-].CCCCCCCCCc1ccccc1[O-].[Ba+2],4.32,-5.11,6.989,-1.9909999999999999,9.637
Quaterphenyl,29036-02-0,c1ccc(cc1)c2ccccc2c3ccccc3c4ccccc4,c1ccc(-c2ccccc2-c2ccccc2-c2ccccc2)cc1,4.05,-5.73,6.272,-3.767,5.537
Atenolol,29122-68-7,CC(C)NCC(O)COc1ccc(CC(N)=O)cc1,CC(C)NCC(O)COc1ccc(CC(N)=O)cc1,-0.799,-2.499,0.257,-10.207,8.622
Dehydrolinalool,29171-20-8,CC(C)=CCCC(C)(O)C#C,C#CC(C)(O)CCC=C(C)C,2.7960000000000003,-2.154,2.65,-5.2620000000000005,13.143
"1,1'-Biphenyl, tris(1-methylethyl)-",29225-91-0,CC(C)c1ccc(c2ccccc2)c(C(C)C)c1C(C)C,CC(C)c1ccc(-c2ccccc2)c(C(C)C)c1C(C)C,5.487,-5.859,6.903,-2.326,6.117
Pirimiphos-methyl,29232-93-7,CCN(CC)c1nc(C)cc(O[P](=S)(OC)OC)n1,CCN(CC)c1nc(C)cc(OP(=S)(OC)OC)n1,3.866,-4.059,3.98,-7.053999999999999,3.055
"Phosphonic acid, (1-hydroxyethylidene)bis-, sodium salt",29329-71-3,[Na].CC(O)([P](O)(O)=O)[P](O)(O)=O,CC(O)(P(=O)(O)O)P(=O)(O)O.[Na],2.048,0.893,-2.496,-24.333000000000002,3.054
"1-Propanol, butoxy-",29387-86-8,CCCCOC(O)CC,CCCCOC(O)CC,1.489,-1.133,1.33,-5.938,14.575
2-Ethylhexyl-(4-chloro-2-methylphenoxy) acetate,29450-45-1,CCCCC(CC)Cc1c(C)c(OOC(C)=O)ccc1Cl,CCCCC(CC)Cc1c(Cl)ccc(OOC(C)=O)c1C,4.066,-5.202000000000001,7.02,-3.103,7.66
"Spiro[isobenzofuran-1(3H),9'-[9H]xanthen]-3-one, 6'-(diethylamino)-3'-methyl",29512-49-0,CCN(CC)c1ccc2c(Oc3cc(C)c(Nc4ccccc4)cc3C25OC(=O)c6ccccc56)c1,CCN(CC)c1ccc2c(c1)Oc1cc(C)c(Nc3ccccc3)cc1C21OC(=O)c2ccccc21,4.049,-5.3,5.619,-7.656000000000001,4.567
"2-[[3-[(1-oxoallyl)oxy]-2,2-bis[[(1-oxoallyl)oxy]methyl]propoxy]methyl]-2-[[(1-oxoallyl)oxy]methyl]-1,3-propanediyl diacrylate",29570-58-9,C=CC(=O)OCC(COCC(COC(=O)C=C)(COC(=O)C=C)COC(=O)C=C)(COC(=O)C=C)COC(=O)C=C,C=CC(=O)OCC(COCC(COC(=O)C=C)(COC(=O)C=C)COC(=O)C=C)(COC(=O)C=C)COC(=O)C=C,2.444,-4.181,2.502,-8.017999999999999,7.066
Isooctyl acrylate,29590-42-9,CC(C)CCCCCOC(=O)C=C,C=CC(=O)OCCCCCC(C)C,4.2330000000000005,-3.738,4.399,-2.5660000000000003,9.299
"Propanoic acid, 3-(dodecylthio)-, 2,2-bis[[3-(dodecylthio)-1-oxopropoxy]methyl",29598-76-3,CCCCCCCCCCCCSCCC(=O)OCC(COC(=O)CCSCCCCCCCCCCCC)(COC(=O)CCSCCCCCCCCCCCC)COC(=O)CCSCCCCCCCCCCCC,CCCCCCCCCCCCSCCC(=O)OCC(COC(=O)CCSCCCCCCCCCCCC)(COC(=O)CCSCCCCCCCCCCCC)COC(=O)CCSCCCCCCCCCCCC,5.724,-5.779,8.876,-3.41,8.35
"Benzenesulfonic acid, 2,2'-(1,2-ethenediyl)bis[5-[[4-[(3-amino-3-oxopropyl)",29637-52-3,[Na].[Na].[Na].[Na].CO.CCCN(CCC(N)=O)c1nc(C)nc(Nc2ccc(cc2)[S]([O-])(=O)=O)n1.CNc3ccc(/C=C/c4ccc(Nc5nc(Nc6ccc(cc6)[S]([O-])(=O)=O)nc(n5)N(CC=O)CC(N)=O)cc4[S]([O-])(=O)=O)c(c3)[S]([O-])(=O)=O,CCCN(CCC(N)=O)c1nc(C)nc(Nc2ccc(S(=O)(=O)[O-])cc2)n1.CNc1ccc(/C=C/c2ccc(Nc3nc(Nc4ccc(S(=O)(=O)[O-])cc4)nc(N(CC=O)CC(N)=O)n3)cc2S(=O)(=O)[O-])c(S(=O)(=O)[O-])c1.CO.[Na].[Na].[Na].[Na],1.546,-3.136,2.018,-11.867,4.189
"Phosphoric acid, isodecyl diphenyl ester",29761-21-5,CC(C)CCCCCCCO[P](=O)(Oc1ccccc1)Oc2ccccc2,CC(C)CCCCCCCOP(=O)(Oc1ccccc1)Oc1ccccc1,4.438,-5.691,6.263,-4.72,4.575
"Benzene, dichloromethyl-",29797-40-8,ClC(Cl)c1ccccc1,ClC(Cl)c1ccccc1,4.189,-3.4610000000000003,2.903,-2.286,5.144
2-Ethylhexyl hexadecanoate,29806-73-3,CCCCCCCCCCCCCCCC(=O)OCC(CC)CCCC,CCCCCCCCCCCCCCCC(=O)OCC(CC)CCCC,5.735,-5.4,8.547,-1.101,7.182
2-Ethylhexyl myristate,29806-75-5,CCCCCCCCCCCCCC(=O)OCC(CC)CCCC,CCCCCCCCCCCCCC(=O)OCC(CC)CCCC,5.725,-5.221,8.096,-1.176,7.076
"2-Propanol, 1-(1-methyl-2-propoxyethoxy)-",29911-27-1,CCCOCC(C)OCC(C)O,CCCOCC(C)OCC(C)O,1.023,-1.117,0.937,-6.461,13.204
"2-Propanol, 1-(2-butoxy-1-methylethoxy)-",29911-28-2,CCCCOCC(C)OCC(C)O,CCCCOCC(C)OCC(C)O,1.6769999999999998,-1.423,1.403,-6.167000000000001,12.923
Isodecyl methacrylate,29964-84-9,CC(C)CCCCCCCOC(=O)C(C)=C,C=C(C)C(=O)OCCCCCCCC(C)C,5.083,-4.41,5.973,-2.458,7.885
"1-Propanamine, 3-(isodecyloxy)-",30113-45-2,CC(C)CCCCCCCOCCCN,CC(C)CCCCCCCOCCCN,1.113,-3.7739999999999996,3.4210000000000003,-3.265,9.988
Undecanol,30207-98-8,CCCCCCCCCCCO,CCCCCCCCCCCO,3.818,-3.591,4.642,-2.476,7.703
"Phenol, dodecyl-, hydrogen phosphorodithioate",30304-41-7,CCCCCCCCCCCCc1ccc(O[P](S)(=S)Oc2ccc(CCCCCCCCCCCC)cc2)cc1,CCCCCCCCCCCCc1ccc(OP(=S)(S)Oc2ccc(CCCCCCCCCCCC)cc2)cc1,4.753,-6.699,10.153,-3.282,4.593
Isooctadecanoic acid,30399-84-9,CC(C)CCCCCCCCCCCCCCC(O)=O,CC(C)CCCCCCCCCCCCCCC(=O)O,3.553,-4.711,7.428,-2.364,5.759
Paraformaldehyde,30525-89-4,C=O,C=O,-0.093,-0.11800000000000001,0.454,-2.793,1.149
"Ethanimidothioic acid, 2-(dimethylamino)-N-hydroxy-2-oxo-, methyl ester",30558-43-1,CSC(=NO)C(=O)N(C)C,CSC(=NO)C(=O)N(C)C,-0.976,-0.925,-0.471,-11.217,5.797
"Acetic acid, mercapto-, monoester with 1,2,3-propanetriol",30618-84-9,OCC(O)COC(=O)CS,O=C(CS)OCC(O)CO,-0.792,-0.091,-0.983,-11.915,7.506
"N-[5-[[4-[2,4-bis(1,1-dimethylpropyl)phenoxy]-1-oxobutyl]amino]-2-chlorophenyl]-4,4-dimethyl-3-oxo-2-[4-[[4-(phenylmethoxy)phenyl]sulphonyl]phenoxy]valeramide",30744-85-5,CCC(C)(C)c1ccc(OCCCC(=O)Nc2ccc(Cl)c(NC(=O)C(Oc3ccc(cc3)[S](=O)(=O)c4ccc(OCc5ccccc5)cc4)C(=O)C(C)(C)C)c2)c(c1)C(C)(C)CC,CCC(C)(C)c1ccc(OCCCC(=O)Nc2ccc(Cl)c(NC(=O)C(Oc3ccc(S(=O)(=O)c4ccc(OCc5ccccc5)cc4)cc3)C(=O)C(C)(C)C)c2)c(C(C)(C)CC)c1,4.452,-5.504,6.306,-8.402999999999999,4.364
"Potassium 9,10-dihydro-9,10-dioxoanthracene-1-sulphonate",30845-78-4,[K+].[O-][S](=O)(=O)c1cccc2C(=O)c3ccccc3C(=O)c12,O=C1c2ccccc2C(=O)c2c1cccc2S(=O)(=O)[O-].[K+],1.614,-3.562,2.96,-9.714,10.094
Pentanol,30899-19-5,CCCCCO,CCCCCO,1.266,-0.925,1.595,-4.39,8.563
"lauric acid, ester with hydroxypropanediyl diacetate",30899-62-8,CCCCCCCCCCCC(=O)OCC(COC(C)=O)OC(C)=O,CCCCCCCCCCCC(=O)OCC(COC(C)=O)OC(C)=O,3.287,-3.822,4.651,-4.341,10.55
Tris[2-[2-(2-methoxyethoxy)ethoxy]ethyl] orthoborate,30989-05-0,COCCOCCOCCOB(OCCOCCOCCOC)OCCOCCOCCOC,COCCOCCOCCOB(OCCOCCOCCOC)OCCOCCOCCOC,1.528,-1.469,-0.455,-7.537000000000001,14.642
"Benzene, 1-isocyanato-4-(1-methylethyl)-",31027-31-3,CC(C)c1ccc(cc1)N=C=O,CC(C)c1ccc(N=C=O)cc1,3.224,-3.0260000000000002,3.673,-5.841,4.176
"2,3,4,4'-Tetrahydroxybenzophenon",31127-54-5,Oc1ccc(cc1)C(=O)c2ccc(O)c(O)c2O,O=C(c1ccc(O)cc1)c1ccc(O)c(O)c1O,1.491,-3.19,1.963,-13.102,6.303
"D-Gluco-heptonic acid, monosodium salt, (2.xi.)-",31138-65-5,[Na+].OCC(O)[C@@H](O)[C@@H](O)[C@H](O)[C@@H](O)C([O-])=O,O=C([O-])[C@H](O)[C@@H](O)[C@H](O)[C@H](O)C(O)CO.[Na+],-2.029,0.15,-3.167,-21.811999999999998,3.241
"Phenol, bis(1-methylpropyl)-",31291-60-8,CCC(C)c1cccc(O)c1C(C)CC,CCC(C)c1cccc(O)c1C(C)CC,4.538,-4.823,4.864,-3.3360000000000003,9.49
"Octanoic acid, 2,2-dimethyl-1,3-propanediyl ester",31335-74-7,CCCCCCCC(=O)OCC(C)(C)COC(=O)CCCCCCC,CCCCCCCC(=O)OCC(C)(C)COC(=O)CCCCCCC,5.854,-4.3660000000000005,5.876,-3.2289999999999996,6.061
Tridecyl stearate,31556-45-3,CCCCCCCCCCCCCCCCCC(=O)OCCCCCCCCCCCCC,CCCCCCCCCCCCCCCCCC(=O)OCCCCCCCCCCCCC,5.711,-5.909,9.847,-1.121,7.51
Isotridecyl octadecanoate,31565-37-4,CCCCCCCCCCCCCCCCCC(=O)OCCCCCCCCCCC(C)C,CCCCCCCCCCCCCCCCCC(=O)OCCCCCCCCCCC(C)C,5.687,-5.856,9.761,-0.986,7.782
"Stearin, mono-",31566-31-1,CCCCCCCCCCCCCCCCCC(=O)OCC(O)CO,CCCCCCCCCCCCCCCCCC(=O)OCC(O)CO,4.055,-4.252,6.01,-5.043,7.273
"Phenol, 2,4-bis(1,1-dimethylethyl)-, phosphite (3:1)",31570-04-4,CC(C)(C)c1ccc(O)c(c1)C(C)(C)C.CC(C)(C)c2ccc(O)c(c2)C(C)(C)C.CC(C)(C)c3ccc(O)c(c3)C(C)(C)C.OP(O)O,CC(C)(C)c1ccc(O)c(C(C)(C)C)c1.CC(C)(C)c1ccc(O)c(C(C)(C)C)c1.CC(C)(C)c1ccc(O)c(C(C)(C)C)c1.OP(O)O,4.126,-3.4939999999999998,2.74,-5.57,7.687
Fenoprofen,31879-05-7,CC(C(O)=O)c1cccc(Oc2ccccc2)c1,CC(C(=O)O)c1cccc(Oc2ccccc2)c1,0.29600000000000004,-4.178999999999999,3.897,-7.317,4.468
"3-Cyclohexene-1-carboxaldehyde, 4-(4-hydroxy-4-methylpentyl)-",31906-04-4,CC(C)(O)CCCC1=CCC(CC1)C=O,CC(C)(O)CCCC1=CCC(C=O)CC1,2.6060000000000003,-2.485,2.377,-5.035,10.658
"2,5-Furandione, 3-(hexadecenyl)dihydro-",32072-96-1,CCCCCCCCCCCCCCC=CC1CC(=O)OC1=O,CCCCCCCCCCCCCCC=CC1CC(=O)OC1=O,3.994,-4.52,7.58,-3.193,4.946
"Benzene, (1-methylethyl)-, monosulfo deriv., sodium salt",32073-22-6,[Na+].CC(C)c1ccccc1[S]([O-])(=O)=O,CC(C)c1ccccc1S(=O)(=O)[O-].[Na+],3.142,-2.627,2.353,-6.43,4.009
"Cyclohexanol, 4-tert-butyl-, acetate",32210-23-4,CC(O)=O.CC(C)(C)C1CCC(O)CC1,CC(=O)O.CC(C)(C)C1CCC(O)CC1,-0.922,-1.444,0.911,-4.5169999999999995,6.05
Octadecyl methacrylate,32360-05-7,CCCCCCCCCCCCCCCCCCOC(=O)C(C)=C,C=C(C)C(=O)OCCCCCCCCCCCCCCCCCC,5.4570000000000025,-5.515,9.042,-1.9140000000000001,7.724
"Ethanone, 1-[(3R,3aR,7R,8aS)-2,3,4,7,8,8a-hexahydro-3,6,8,8-tetramethyl-1H-3a,7-methanoazulen-5-yl]-",32388-55-9,C[C@@H]1CC[C@H]2C(C)(C)[C@H]3C[C@@]12CC(=C3C)C(C)=O,CC(=O)C1=C(C)[C@@H]2C[C@]3(C1)[C@@H](CC[C@H]3C)C2(C)C,4.269,-4.253,4.0139999999999985,-3.907,6.251
"Benzene, 1,1'-oxybis-, pentabromo deriv.",32534-81-9,Brc1ccc(Oc2cc(Br)c(Br)cc2Br)c(Br)c1,Brc1ccc(Oc2cc(Br)c(Br)cc2Br)c(Br)c1,5.247000000000001,-7.132999999999999,6.837999999999999,-4.629,7.004
"Benzene, 1,1'-oxybis-, octabromo deriv.",32536-52-0,Brc1cc(Br)c(Oc2c(Br)c(Br)c(Br)c(Br)c2Br)cc1Br,Brc1cc(Br)c(Oc2c(Br)c(Br)c(Br)c(Br)c2Br)cc1Br,5.3,-8.495,7.457000000000002,-4.848,6.6
"1,3,4-Thiadiazole, 2-(methylthio)-5-(trifluoromethyl)-",32539-16-5,CSc1sc(nn1)C(F)(F)F,CSc1nnc(C(F)(F)F)s1,2.414,-3.472,2.153,-2.562,4.568
"1H-Isoindole-1,3(2H)-dione, 2,2'-(1,2-ethanediyl)bis[4,5,6,7-tetrabromo-",32588-76-4,Brc1c(Br)c(Br)c2C(=O)N(CCN3C(=O)c4c(Br)c(Br)c(Br)c(Br)c4C3=O)C(=O)c2c1Br,O=C1c2c(Br)c(Br)c(Br)c(Br)c2C(=O)N1CCN1C(=O)c2c(Br)c(Br)c(Br)c(Br)c2C1=O,3.852,-7.1339999999999995,5.074,-10.196,8.079
"Benzenepropanoic acid, 3,5-bis(1,1-dimethylethyl)-4-hydroxy-, 2-[3-[3,5-bis(1,1-dimethylethyl)-4-hydroxyphenyl]-1-oxopropyl]hydrazide",32687-78-8,CC(C)(C)c1cc(CCC(=O)NNC(=O)CCc2cc(c(O)c(c2)C(C)(C)C)C(C)(C)C)cc(c1O)C(C)(C)C,CC(C)(C)c1cc(CCC(=O)NNC(=O)CCc2cc(C(C)(C)C)c(O)c(C(C)(C)C)c2)cc(C(C)(C)C)c1O,4.585,-4.763999999999999,3.575,-7.412000000000001,10.23
"(2S-cis)-3-acetoxy-5-[2-(dimethylamino)ethyl]-2,3-dihydro-2-(4-methoxyphenyl)-1,5-benzothiazepin-4(5H)-one monohydrochloride",33286-22-5,Cl.COc1ccc(cc1)[C@@H]2Sc3ccccc3N(CCN(C)C)C(=O)[C@@H]2OC(C)=O,COc1ccc([C@@H]2Sc3ccccc3N(CCN(C)C)C(=O)[C@@H]2OC(C)=O)cc1.Cl,2.019,-3.378,3.107,-8.196,10.109
"1,2,4-Triazin-5(2H)-one, 4-amino-6-(1,1-dimethylethyl)-3,4-dihydro-3-thioxo-",33509-43-2,CC(C)(C)C1=NNC(=S)N(N)C1=O,CC(C)(C)c1n[nH]c(=S)n(N)c1=O,-0.076,-1.494,1.405,-14.020999999999999,8.631
Di(isononyl) adipate,33703-08-1,CC(C)CCCCCCOC(=O)CCCCC(=O)OCCCCCCC(C)C,CC(C)CCCCCCOC(=O)CCCCC(=O)OCCCCCCC(C)C,5.472,-4.828,6.6110000000000015,-2.441,7.402
Sodium hexahydroxoantimonate,33908-66-6,[OH-].[OH-].[OH-].[OH-].[OH-].[OH-].[Na+].[Sb],[Na+].[OH-].[OH-].[OH-].[OH-].[OH-].[OH-].[Sb],0.132,-1.382,0.911,-3.89,20.918
"1,3-Isobenzofurandione, tetrahydro-5-methyl-",34090-76-1,CC1CC=C2C(C1)C(=O)OC2=O,CC1CC=C2C(=O)OC(=O)C2C1,2.361,-2.112,1.5519999999999998,-5.482,4.7
"[2S-(2alpha,4beta,5alpha,6beta)]-3,3-dimethyl-7-oxo-6-(phenylacetamido)-4-thia-1-azabicyclo[3.2.0]heptane-2-carboxylic acid 4-oxide",34104-15-9,CC1(C)C(N2C(C(NC(=O)Cc3ccccc3)C2=O)[S]1=O)C(O)=O,CC1(C)C(C(=O)O)N2C(=O)C(NC(=O)Cc3ccccc3)C2S1=O,-0.456,-2.721,1.05,-12.934000000000001,2.679
"Urea, 3-(4-isopropylphenyl)-1,1-dimethyl-",34123-59-6,CC(C)c1ccc(NC(=O)N(C)C)cc1,CC(C)c1ccc(NC(=O)N(C)C)cc1,3.715,-2.764,2.439,-9.728,10.853
2-Chloro-N-(ethoxymethyl)-N-(2-ethyl-6-methylphenyl)acetamide,34256-82-1,CCOCN(C(=O)CCl)c1c(C)cccc1CC,CCOCN(C(=O)CCl)c1c(C)cccc1CC,3.621,-3.867,2.673,-7.405,5.652
"Ethanol, 2-(hydroxymethylamino)-",34375-28-5,OCCNCO,OCCNCO,-3.027,0.72,-1.607,-11.919,7.961