chemical_name,cas,smiles,canonical_smiles,log_p,log_s,kow,water-energy,pka
"1,1'-(1,1-dimethyl-3-methylene-1,3-propanediyl)bisbenzene",6362-80-7,CC(C)(CC(=C)c1ccccc1)c2ccccc2,C=C(CC(C)(C)c1ccccc1)c1ccccc1,4.442,-5.167000000000002,5.742000000000001,-2.233,3.921
"Calcium N-(2,4-dihydroxy-3,3-dimethyl-1-oxobuty",6381-63-1,[Ca++].CC(C)(CO)C(O)C(=O)NCCC([O-])=O.CC(C)(CO)C(O)C(=O)NCCC([O-])=O,CC(C)(CO)C(O)C(=O)NCCC(=O)[O-].CC(C)(CO)C(O)C(=O)NCCC(=O)[O-].[Ca+2],0.097,-1.113,-0.42,-12.806,10.066
"D-Araboascorbic acid, monosodium salt",6381-77-7,[Na+].O[C@H](C[O-])[C@H]1OC(=C(O)C1=O)O,O=C1C(O)=C(O)O[C@@H]1[C@H](O)C[O-].[Na+],-0.466,-0.47600000000000003,-1.489,-14.15,4.257
Metilox,6386-38-5,COC(=O)CCc1cc(c(O)c(c1)C(C)(C)C)C(C)(C)C,COC(=O)CCc1cc(C(C)(C)C)c(O)c(C(C)(C)C)c1,5.038,-4.385,3.337,-4.645,9.904
"Phosphonic acid, [nitrilotris(methylene)]tris-",6419-19-8,O[P](O)(=O)CN(C[P](O)(O)=O)C[P](O)(O)=O,O=P(O)(O)CN(CP(=O)(O)O)CP(=O)(O)O,2.142,1.3159999999999998,-3.42,-19.866,4.339
"Terephthalic acid, bis(2-ethylhexyl) ester",6422-86-2,CCCCC(CC)COC(=O)c1ccc(cc1)C(=O)OCC(CC)CCCC,CCCCC(CC)COC(=O)c1ccc(C(=O)OCC(CC)CCCC)cc1,5.3889999999999985,-5.532,7.513,-3.6860000000000004,4.054
"Morpholine, 4,4'-(oxydi-2,1-ethanediyl)bis-",6425-39-4,C(CN1CCOCC1)OCCN2CCOCC2,C1CN(CCOCCN2CCOCC2)CCO1,0.114,-1.189,-0.256,-8.67,6.154
C.I. Pigment Red 22,6448-95-9,Cc1ccc(cc1N\N=C2/C(=O)C(=Cc3ccccc23)C(=O)Nc4ccccc4)[N+]([O-])=O,Cc1ccc([N+](=O)[O-])cc1N/N=C1\C(=O)C(C(=O)Nc2ccccc2)=Cc2ccccc21,3.726,-4.092,3.925,-10.559000000000001,5.407
"Benzenesulfonic acid, 4-amino-5-methoxy-2-methyl-",6471-78-9,COc1cc(c(C)cc1N)[S](O)(=O)=O,COc1cc(S(=O)(=O)O)c(C)cc1N,-0.079,-1.4280000000000002,-2.069,-11.727,-1.129
Ammonium nitrate,6484-52-2,[NH4+].[O-][N+]([O-])=O,O=[N+]([O-])[O-].[NH4+],-1.5930000000000002,-0.222,-0.141,-3.0469999999999997,14.022
"1,2-Benzisothiazol-3(2H)-one, 1,1-dioxide, calcium salt",6485-34-3,[Ca++].[O-][S]1(=NC(=O)c2ccccc12)=O.O=C3[N-][S](=O)(=O)c4ccccc34,O=C1N=S(=O)([O-])c2ccccc21.O=C1[N-]S(=O)(=O)c2ccccc21.[Ca+2],0.158,-2.366,1.134,-9.132,8.804
"Morpholine, 2,6-dimethyl-, cis-",6485-55-8,C[C@H]1CNC[C@@H](C)O1,C[C@H]1CNC[C@@H](C)O1,-0.933,-1.015,-0.025,-6.401,9.649
Pentoxifylline,5/6/6493,Cn1cnc2N(C)C(=O)N(CCCCC(C)=O)C(=O)c12,CC(=O)CCCCn1c(=O)c2c(ncn2C)n(C)c1=O,0.6890000000000001,-2.0180000000000002,0.13,-12.714,8.709
C.I. Pigment Orange 16,6505-28-8,COc1cc(ccc1N=NC(C(C)=O)C(=O)Nc2ccccc2)c3ccc(N=NC(C(C)=O)C(=O)Nc4ccccc4)c(OC)c3,COc1cc(-c2ccc(N=NC(C(C)=O)C(=O)Nc3ccccc3)c(OC)c2)ccc1N=NC(C(C)=O)C(=O)Nc1ccccc1,2.7110000000000003,-4.218,4.792,-11.308,3.947
"Butanamide, 2-[(4-methoxy-2-nitrophenyl)azo]-N-(2-methoxyphenyl)-3-oxo-",6528-34-3,COc1ccc(N=NC(C(C)=O)C(=O)Nc2ccccc2OC)c(c1)[N+]([O-])=O,COc1ccc(N=NC(C(C)=O)C(=O)Nc2ccccc2OC)c([N+](=O)[O-])c1,1.949,-3.475,3.261,-10.439,2.937
"Uracil, 6-amino-1,3-dimethyl-",6642-31-5,CN1C(=CC(=O)N(C)C1=O)N,Cn1c(N)cc(=O)n(C)c1=O,-0.354,-0.6890000000000001,-0.79,-16.117,7.181
"Aluminum, tridocosyl-",6651-25-8,CCCCCCCCCCCCCCCCCCCCCC[Al](CCCCCCCCCCCCCCCCCCCCCC)CCCCCCCCCCCCCCCCCCCCCC,CCCCCCCCCCCCCCCCCCCCCC[Al](CCCCCCCCCCCCCCCCCCCCCC)CCCCCCCCCCCCCCCCCCCCCC,5.695,-6.672999999999999,12.22,-0.287,7.921
"Aluminum, tritetracosyl-",6651-26-9,CCCCCCCCCCCCCCCCCCCCCCCC[Al](CCCCCCCCCCCCCCCCCCCCCCCC)CCCCCCCCCCCCCCCCCCCCCCCC,CCCCCCCCCCCCCCCCCCCCCCCC[Al](CCCCCCCCCCCCCCCCCCCCCCCC)CCCCCCCCCCCCCCCCCCCCCCCC,5.706,-6.716,12.351,-0.27899999999999997,7.964
"Aluminum, trioctacosyl-",6651-27-0,CCCCCCCCCCCCCCCCCCCCCCCCCCCC[Al](CCCCCCCCCCCCCCCCCCCCCCCCCCCC)CCCCCCCCCCCCCCCCCCCCCCCCCCCC,CCCCCCCCCCCCCCCCCCCCCCCCCCCC[Al](CCCCCCCCCCCCCCCCCCCCCCCCCCCC)CCCCCCCCCCCCCCCCCCCCCCCCCCCC,5.723,-6.784,12.557,-0.266,8.032
"Pentaerythritol tetrakis[3-(3,5-di-tert-butyl-4-hydroxypheny",6683-19-8,CC(C)(C)c1cc(CCC(=O)OCC(COC(=O)CCc2cc(c(O)c(c2)C(C)(C)C)C(C)(C)C)(COC(=O)CCc3cc(c(O)c(c3)C(C)(C)C)C(C)(C)C)COC(=O)CCc4cc(c(O)c(c4)C(C)(C)C)C(C)(C)C)cc(c1O)C(C)(C)C,CC(C)(C)c1cc(CCC(=O)OCC(COC(=O)CCc2cc(C(C)(C)C)c(O)c(C(C)(C)C)c2)(COC(=O)CCc2cc(C(C)(C)C)c(O)c(C(C)(C)C)c2)COC(=O)CCc2cc(C(C)(C)C)c(O)c(C(C)(C)C)c2)cc(C(C)(C)C)c1O,5.607,-5.694,4.746,-5.471,9.438
"Benzene, undecyl-",6742-54-7,CCCCCCCCCCCc1ccccc1,CCCCCCCCCCCc1ccccc1,4.587,-5.4639999999999995,8.309,-0.7090000000000001,6.366
Disodium metasilicate(Na2SiO3),6834-92-0,[Na+].[Na+].[O-][Si]([O-])=O,O=[Si]([O-])[O-].[Na+].[Na+],-1.7080000000000002,-0.6779999999999999,0.246,-4.898,0.369
"1-Propene, tetramer",6842-15-5,CCCCCCCCCCC=C,C=CCCCCCCCCCC,5.206,-4.6419999999999995,6.9910000000000005,0.7290000000000001,6.38
"Propanoic acid, 2-methyl-, 2,2-dimethyl-1-(1-methylethyl)-1,3-propanediyl ester",6846-50-0,CC(C)C(OC(=O)C(C)C)C(C)(C)COC(=O)C(C)C,CC(C)C(=O)OCC(C)(C)C(OC(=O)C(C)C)C(C)C,4.812,-3.926,4.838,-4.276,9.99
"Butane, 2,2'-oxybis-",6863-58-7,CCC(C)OC(C)CC,CCC(C)OC(C)CC,3.184,-2.418,2.6010000000000004,-0.6609999999999999,9.57
"2,2'-Dimethyl-4,4'-methylenebis(cyclohexylamine)",6864-37-5,CC1CC(CCC1N)CC2CCC(N)C(C)C2,CC1CC(CC2CCC(N)C(C)C2)CCC1N,-1.53,-3.602,1.7719999999999998,-2.591,10.908
"Stearic acid, barium salt",6865-35-6,[Ba++].CCCCCCCCCCCCCCCCCC([O-])=O.CCCCCCCCCCCCCCCCCC([O-])=O,CCCCCCCCCCCCCCCCCC(=O)[O-].CCCCCCCCCCCCCCCCCC(=O)[O-].[Ba+2],5.092,-5.021,8.568999999999999,-1.653,8.689
"Propanenitrile, 2,2'-hydrazobis-2-methyl",7/4/6869,CC(C)(NNC(C)(C)C#N)C#N,CC(C)(C#N)NNC(C)(C)C#N,-0.8740000000000001,-1.673,0.147,-12.345999999999998,3.268
"Pinane, stereoisomer",6876-13-7,CC1CCC2CC1C2(C)C,CC1CCC2CC1C2(C)C,4.91,-4.551,4.853,0.66,8.105
"Ethanol, 2-(2-propoxyethoxy)-",6881-94-3,CCCOCCOCCO,CCCOCCOCCO,0.649,-0.674,-0.184,-6.952000000000001,13.549
Malic acid,6915-15-7,OC(CC(O)=O)C(O)=O,O=C(O)CC(O)C(=O)O,-6.0139999999999985,0.503,-1.453,-14.73,3.166
"Acetic acid, antimony(3+) salt",6923-52-0,[Sb+3].CC([O-])=O.CC([O-])=O.CC([O-])=O,CC(=O)[O-].CC(=O)[O-].CC(=O)[O-].[Sb+3],-2.116,-0.049,0.392,-4.7,11.254
"Hexanedioic acid, bis(1-methylethyl) ester",6938-94-9,CC(C)OC(=O)CCCCC(=O)OC(C)C,CC(C)OC(=O)CCCCC(=O)OC(C)C,4.864,-2.991,2.596,-3.93,9.535
"Benzene, 1-chloro-2,5-dimethoxy-4-nitro-",6940-53-0,COc1cc(c(OC)cc1Cl)[N+]([O-])=O,COc1cc([N+](=O)[O-])c(OC)cc1Cl,2.684,-3.412,2.562,-5.516,7.156
"2-Naphthalenecarboxylic acid, 4-[(5-chloro-4-methyl-2-sulfophenyl)azo]-3-hydroxy-, calcium salt (1:1)",7023-61-2,[Ca++].Cc1cc(c(N\N=C\2C(=O)C(=Cc3ccccc23)C([O-])=O)cc1Cl)[S]([O-])(=O)=O,Cc1cc(S(=O)(=O)[O-])c(N/N=C2\C(=O)C(C(=O)[O-])=Cc3ccccc32)cc1Cl.[Ca+2],3.11,-3.753,3.701,-10.288,8.545
"Cyclohexanecarbonitrile, 1,3,3-trimethyl-5-oxo-",11/4/7027,CC1(C)CC(=O)CC(C)(C1)C#N,CC1(C)CC(=O)CC(C)(C#N)C1,1.885,-1.5930000000000002,1.358,-5.662000000000001,12.008
"2-Propenoic acid, 2-cyano-, ethyl ester",7085-85-0,CCOC(=O)C(=C)C#N,C=C(C#N)C(=O)OCC,0.7859999999999999,-1.624,0.937,-6.684,4.644
"1-Decanaminium, N-decyl-N,N-dimethyl-, chloride",7173-51-5,[Cl-].CCCCCCCCCC[N+](C)(C)CCCCCCCCCC,CCCCCCCCCC[N+](C)(C)CCCCCCCCCC.[Cl-],1.855,-5.131,3.179,-0.586,8.84
"1,3-Propanediamine, N-(9Z)-9-octadecenyl-",7173-62-8,CCCCCCCC\C=C/CCCCCCCCNCCCN,CCCCCCCC/C=C\CCCCCCCCNCCCN,1.143,-4.75,5.462999999999999,-3.7039999999999997,9.879
"Hexanoic acid, 2-ethyl-, 2,2-bis[[(2-ethyl-1-oxohexyl)oxy]methyl]-1,3-propanediylester",7299-99-2,CCCCC(CC)C(=O)OCC(COC(=O)C(CC)CCCC)(COC(=O)C(CC)CCCC)COC(=O)C(CC)CCCC,CCCCC(CC)C(=O)OCC(COC(=O)C(CC)CCCC)(COC(=O)C(CC)CCCC)COC(=O)C(CC)CCCC,5.777,-5.401,6.334,-4.035,7.798
Tetrapotassium pyrophosphate,7320-34-5,[K+].[K+].[K+].[K+].[O-][P]([O-])(=O)O[P]([O-])([O-])=O,O=P([O-])([O-])OP(=O)([O-])[O-].[K+].[K+].[K+].[K+],1.43,-0.9059999999999999,0.821,-8.423,6.896
"Oxirane, tetradecyl-",7320-37-8,CCCCCCCCCCCCCCC1CO1,CCCCCCCCCCCCCCC1CO1,4.992,-5.221,8.205,-1.536,6.235
"Acetonitrile, 2,2',2""-nitrilotris-",7327-60-8,N#CCN(CC#N)CC#N,N#CCN(CC#N)CC#N,-1.185,-0.562,0.141,-10.595999999999998,0.205
"Oxirane, 2,2',2'',2'''-[1,2-ethanediylidenetetrakis(4,1-phenyleneoxymethylene)]tetrakis-",7328-97-4,C1OC1COc2ccc(cc2)C(C(c3ccc(OCC4CO4)cc3)c5ccc(OCC6CO6)cc5)c7ccc(OCC8CO8)cc7,c1cc(C(c2ccc(OCC3CO3)cc2)C(c2ccc(OCC3CO3)cc2)c2ccc(OCC3CO3)cc2)ccc1OCC1CO1,3.937,-5.662000000000001,6.0379999999999985,-8.316,7.194
"Disodium 4,4'-diaminostilbene-2,2'-disulphonate",7336-20-1,[Na+].[Na+].Nc1ccc(C=Cc2ccc(N)cc2[S]([O-])(=O)=O)c(c1)[S]([O-])(=O)=O,Nc1ccc(C=Cc2ccc(N)cc2S(=O)(=O)[O-])c(S(=O)(=O)[O-])c1.[Na+].[Na+],0.595,-2.72,1.763,-10.935,4.182
"Methacrylic acid, 3-(trichlorosilyl)propyl ester",7351-61-3,CC(=C)C(=O)OCCC[Si](Cl)(Cl)Cl,C=C(C)C(=O)OCCC[Si](Cl)(Cl)Cl,3.636,-3.858,3.325,-4.407,11.624
"1-Octanamine, N,N-dimethyl-",7378-99-6,CCCCCCCCN(C)C,CCCCCCCCN(C)C,0.677,-3.0580000000000003,3.479,-2.4019999999999997,9.891
"Propanol, 2-methyl-3-phenyl-",7384-80-7,CC(CO)Cc1ccccc1,CC(CO)Cc1ccccc1,2.91,-2.815,2.481,-4.602,6.051
"Didecylamine, N-methyl-",7396-58-9,CCCCCCCCCCN(C)CCCCCCCCCC,CCCCCCCCCCN(C)CCCCCCCCCC,3.82,-5.167000000000002,7.716,-1.6780000000000002,10.026
"Acetic acid, hydroxy-, butyl ester",7397-62-8,CCCCOC(=O)CO,CCCCOC(=O)CO,1.208,-0.9,0.524,-6.934,9.883
"Ammonium, diallyldimethyl-, chloride",7398-69-8,[Cl-].C[N+](C)(CC=C)CC=C,C=CC[N+](C)(C)CC=C.[Cl-],-0.258,-2.532,-2.6460000000000004,-2.465,8.666
Disodium dihydrogen (1-hydroxyethylidene)bisphosphonate,7414-83-7,[Na+].[Na+].CC(O)([P](O)(O)=O)[P]([O-])([O-])=O,CC(O)(P(=O)([O-])[O-])P(=O)(O)O.[Na+].[Na+],1.155,-0.228,-0.904,-18.715,2.333
Aluminium,7429-90-5,[AlH2],[AlH2],1.225,-1.178,2.095,-3.445,10.491
"Ethane-1,2-diylbis(oxyethane-2,1-diyl) bisheptanoate",7434-40-4,CCCCCCC(=O)OCCOCCOCCOC(=O)CCCCCC,CCCCCCC(=O)OCCOCCOCCOC(=O)CCCCCC,4.2860000000000005,-3.4219999999999997,3.919,-4.809,10.26
Iron,7439-89-6,[Fe],[Fe],1.89,-1.304,2.378,-3.127,7.951
Lead,7439-92-1,[PbH4],[PbH4],1.912,-0.599,1.986,0.295,34.193
Magnesium,7439-95-4,[MgH2],[MgH2],1.287,-1.123,2.019,-3.2689999999999997,11.148
Manganese,7439-96-5,[Mn],[Mn],1.25,-1.281,2.44,-3.367,9.323
Molybdenum,7439-98-7,[Mo],[Mo],1.406,-1.453,2.585,-3.2310000000000003,10.426
Nickel,7440-02-0,[Ni],[Ni],1.141,-1.765,0.984,-2.972,6.097
Niobium,3/1/7440,[Nb],[Nb],1.5590000000000002,-1.3880000000000001,2.532,-3.085,8.334
Silicon,7440-21-3,[SiH4],[SiH4],-0.103,-0.61,0.429,0.579,28.32
Silver,7440-22-4,[Ag],[Ag],1.863,-1.4909999999999999,1.574,-3.0789999999999997,6.265
Sodium,7440-23-5,[Na],[Na],1.03,-1.6869999999999998,2.499,-3.866,-11.06
Tin,7440-31-5,[Sn],[Sn],1.571,-1.401,2.052,-3.136,10.777
Titanium,7440-32-6,[Ti],[Ti],1.23,-1.416,2.127,-3.549,6.718
Tungsten,7440-33-7,[W],[W],1.643,-1.415,2.665,-2.7939999999999996,10.483
Antimony,7440-36-0,[SbH2],[SbH2],1.123,-0.951,1.936,-3.662,19.312
Argon,7440-37-1,[Ar],[Ar],1.3090000000000002,-1.64,2.679,-2.946,8.28
Cadmium,7440-43-9,[Cd],[Cd],2.349,-1.474,3.12,-2.563,5.489
Carbon,7440-44-0,C,C,2.052,-0.588,1.6369999999999998,2.231,24.222
Chromium,7440-47-3,[Cr],[Cr],1.783,-1.382,2.318,-2.544,6.693
Cobalt,7440-48-4,[Co],[Co],1.774,-1.515,2.2840000000000003,-3.2089999999999996,8.893
Copper,7440-50-8,[Cu],[Cu],1.673,-1.742,1.733,-3.155,4.627
Helium,7440-59-7,[He],[He],1.926,-1.506,2.834,-2.762,2.736
Uranium,7440-61-1,[U],[U],1.621,-1.032,2.531,-2.97,16.569
Vanadium,7440-62-2,[V],[V],1.73,-1.393,2.738,-2.965,7.89
Zinc,7440-66-6,[Zn],[Zn],2.49,-1.6269999999999998,2.858,-3.3089999999999997,5.923
Calcium,7440-70-2,[CaH2],[CaH2],1.5930000000000002,-0.934,2.307,-2.8369999999999997,10.585
Sulfur dioxide,9/5/7446,O=[S]=O,O=S=O,-3.569,0.45399999999999996,-0.682,-6.86,-0.92
Sulfur trioxide,11/9/7446,O=[S](=O)=O,O=S(=O)=O,-6.102,1.263,-3.475,-8.234,1.892
Aluminium chloride,7446-70-0,[Al+3].[Cl-].[Cl-].[Cl-],[Al+3].[Cl-].[Cl-].[Cl-],2.695,-2.017,3.236,-2.97,8.607
Sodium acrylate,7446-81-3,[Na+].[O-]C(=O)C=C,C=CC(=O)[O-].[Na+],-0.629,-0.768,0.413,-5.442,2.943
Potassium chloride,7447-40-7,[Cl-].[K+],[Cl-].[K+],2.119,-2.021,2.326,-3.4360000000000004,4.529
Lithium chloride,7447-41-8,[Li+].[Cl-],[Cl-].[Li+],1.909,-2.081,2.594,-3.3939999999999997,2.098
Magnesium sulfate,7487-88-9,[Mg++].[O-][S]([O-])(=O)=O,O=S(=O)([O-])[O-].[Mg+2],0.21,0.205,0.043,-6.973,12.069
"2-Propenoic acid, 2-methyl-, (1R,2R,4R)-1,7,7-trimethylbicyclo[2.2.1]hept-2-ylester, rel-",7534-94-3,CC(=C)C(=O)OC1CC2CCC1(C)C2(C)C,C=C(C)C(=O)OC1CC2CCC1(C)C2(C)C,4.413,-4.7589999999999995,5.395,-3.3510000000000004,5.559
Lithium bromide,7550-35-8,[Li+].[Br-],[Br-].[Li+],2.213,-2.164,2.602,-3.537,2.454
Titanium tetrachloride,7550-45-0,[Cl-].[Cl-].[Cl-].[Cl-].[Ti+4],[Cl-].[Cl-].[Cl-].[Cl-].[Ti+4],2.761,-2.005,3.326,-2.9330000000000003,9.115
Disodium hydrogenphosphate,7558-79-4,[Na+].[Na+].O[P]([O-])([O-])=O,O=P([O-])([O-])O.[Na+].[Na+],1.683,0.053,-1.233,-9.343,1.245
Sodium dihydrogenphosphate,7558-80-7,[Na+].O[P](O)([O-])=O,O=P([O-])(O)O.[Na+],1.482,1.115,-2.591,-12.942,1.403
"Ethanol, 2-tert-butoxy-",7580-85-0,CC(C)(C)OCCO,CC(C)(C)OCCO,1.847,-0.835,0.601,-5.992000000000001,16.701
"Acetic acid, zirconium salt",7585-20-8,[Zr+4].CC([O-])=O.CC([O-])=O.CC([O-])=O.CC([O-])=O,CC(=O)[O-].CC(=O)[O-].CC(=O)[O-].CC(=O)[O-].[Zr+4],-2.171,0.01,0.269,-4.772,10.932
.beta.-Cyclodextrin,7585-39-9,OCC1OC2OC3C(O)C(O)C(OC3CO)OC4C(O)C(O)C(OC4CO)OC5C(O)C(O)C(OC5CO)OC6C(O)C(O)C(OC6CO)OC7C(O)C(O)C(OC7CO)OC8C(O)C(O)C(OC8CO)OC1C(O)C2O,OCC1OC2OC3C(CO)OC(OC4C(CO)OC(OC5C(CO)OC(OC6C(CO)OC(OC7C(CO)OC(OC8C(CO)OC(OC1C(O)C2O)C(O)C8O)C(O)C7O)C(O)C6O)C(O)C5O)C(O)C4O)C(O)C3O,-1.958,-0.10800000000000001,-3.0980000000000003,-17.213,5.264
C.I. Pigment Red 48:1,7585-41-3,[Ba++].Cc1cc(c(N\N=C/2C(=O)C(=Cc3ccccc23)C([O-])=O)cc1Cl)[S]([O-])(=O)=O,Cc1cc(S(=O)(=O)[O-])c(N/N=C2/C(=O)C(C(=O)[O-])=Cc3ccccc32)cc1Cl.[Ba+2],2.61,-3.725,3.659,-10.263,8.776
Trisodium phosphate,7601-54-9,[Na+].[Na+].[Na+].[O-][P]([O-])([O-])=O,O=P([O-])([O-])[O-].[Na+].[Na+].[Na+],0.889,-0.732,0.6709999999999999,-6.7139999999999995,-1.089
Sodium perchlorate,7601-89-0,[Na+].[O-][Cl](=O)(=O)=O,[Na+].[O-][Cl+3]([O-])([O-])[O-],1.111,-0.899,1.393,-6.332999999999999,14.658
"Octadecanoic acid, 12-hydroxy-, monolithium salt",7620-77-1,[Li+].CCCCCCC(O)CCCCCCCCCCC([O-])=O,CCCCCCC(O)CCCCCCCCCCC(=O)[O-].[Li+],3.951,-4.133,6.2170000000000005,-3.805,5.159
Silicon dioxide,7631-86-9,O=[Si]=O,O=[Si]=O,-5.921,0.73,0.552,-7.551,-0.951
Monosodium sulfite,7631-90-5,[Na+].O[S]([O-])=O,O=S([O-])O.[Na+],-0.081,0.384,-2.861,-9.501,-0.578
Disodium molybdate,7631-95-0,[Na+].[Na+].[O-][Mo]([O-])(=O)=O,O=[Mo](=O)([O-])[O-].[Na+].[Na+],0.21600000000000005,-0.11,0.096,-7.096,2.291
Sodium nitrate,7631-99-4,[Na+].[O-][N+]([O-])=O,O=[N+]([O-])[O-].[Na+],-1.156,-0.428,0.174,-3.5439999999999996,2.498
Sodium nitrite,7632-00-0,[Na+].[O-]N=O,O=N[O-].[Na+],-1.3130000000000002,-0.276,0.6659999999999999,-5.894,-1.827
"Borane, trifluoro-",7/2/7637,FB(F)F,FB(F)F,1.574,-0.659,1.254,0.42700000000000005,1.605
"Stannane, tetrachloro-",7646-78-8,Cl[Sn](Cl)(Cl)Cl,Cl[Sn](Cl)(Cl)Cl,4.8210000000000015,-2.563,2.463,-0.8490000000000001,14.435
Zinc chloride,7646-85-7,[Cl-].[Cl-].[Zn++],[Cl-].[Cl-].[Zn+2],2.822,-1.999,3.361,-3.569,7.439
Hydrochloric acid,7647-01-0,Cl,Cl,2.408,-1.253,2.033,-2.639,45.866
Palladium chloride (PdCl2),10/1/7647,[Cl-].[Cl-].[Pd++],[Cl-].[Cl-].[Pd+2],2.472,-1.9040000000000001,2.944,-3.216,10.507
Sodium chloride,7647-14-5,[Na+].[Cl-],[Cl-].[Na+],1.72,-2.0709999999999997,2.237,-3.423,-0.254
Sodium bromide,7647-15-6,[Na+].[Br-],[Br-].[Na+],1.995,-2.1430000000000002,2.255,-3.557,0.744
2-Ethylhexyl mercaptoacetate,7659-86-1,CCCCC(CC)COC(=O)CS,CCCCC(CC)COC(=O)CS,3.952,-3.093,3.767,-3.522,7.133
Phosphoric acid,7664-38-2,O[P](O)(O)=O,O=P(O)(O)O,-0.398,2.678,-4.112,-17.773,3.847
Hydrofluoric acid,7664-39-3,F,F,0.308,-0.9990000000000001,0.539,-1.909,24.824
Ammonia,7664-41-7,N,N,-2.046,-0.322,1.372,-4.252,9.917
Sulfuric acid,7664-93-9,O[S](O)(=O)=O,O=S(=O)(O)O,-0.7859999999999999,2.298,-9.548,-13.652000000000001,2.155
Sodium hydrogensulfate,7681-38-1,[Na+].O[S]([O-])(=O)=O,O=S(=O)([O-])O.[Na+],0.195,0.8809999999999999,-4.574,-9.577,-0.43
Sodium fluoride,7681-49-4,[F-].[Na+],[F-].[Na+],0.5539999999999999,-2.024,1.729,-3.069,-2.385
Sodium hypochlorite,7681-52-9,[Na+].[O-]Cl,[Na+].[O-]Cl,1.82,-0.996,1.46,-3.8489999999999998,-8.664
Sodium phosphinate,7681-53-0,[Na+].[O-][PH2]=O,O=[PH2][O-].[Na+],0.984,-0.5579999999999999,-0.267,-6.506,-0.803
Disodium disulphite,7681-57-4,[Na+].[Na+].[O-][S](=O)O[S]([O-])=O,O=S([O-])OS(=O)[O-].[Na+].[Na+],0.16,-0.33399999999999996,0.219,-8.502,-0.191
"3,4-dihydro-2,5,7,8-tetramethyl-2-(4,8,12-trimethyltridecyl)-2H-benzopyran-6-ylacetate",7695-91-2,CC(C)CCCC(C)CCCC(C)CCCC1(C)CCc2c(C)c(CC([O-])=O)c(C)c(C)c2O1,Cc1c(C)c2c(c(C)c1CC(=O)[O-])CCC(C)(CCCC(C)CCCC(C)CCCC(C)C)O2,4.796,-5.645,8.941,-1.972,8.175
Nitric acid,7697-37-2,O[N+]([O-])=O,O=[N+]([O-])O,-4.57,0.746,-0.821,-6.237,-0.205
Sulfur,7704-34-9,S,S,4.398,-1.288,2.389,-2.7760000000000002,17.553
Iron trichloride,7705-08-0,[Cl-].[Cl-].[Cl-].[Fe+3],[Cl-].[Cl-].[Cl-].[Fe+3],2.767,-1.9609999999999999,3.074,-2.748,11.547
Nickel dichloride,7718-54-9,Cl[Ni]Cl,Cl[Ni]Cl,3.202,-0.89,1.987,-2.753,4.718
Thionyl dichloride,9/7/7719,Cl[S](Cl)=O,O=S(Cl)Cl,0.104,-0.48,1.275,-4.953,1.595
Phosphorous trichloride,12/2/7719,ClP(Cl)Cl,ClP(Cl)Cl,3.669,-1.902,1.931,-2.8810000000000002,4.767
Iron sulfate,7720-78-7,[Fe++].[O-][S]([O-])(=O)=O,O=S(=O)([O-])[O-].[Fe+2],0.234,0.228,0.013,-6.856,15.003
Ammonium dihydrogenphosphate,7722-76-1,[NH4+].O[P](O)([O-])=O,O=P([O-])(O)O.[NH4+],1.144,1.29,-2.827,-12.693,4.438
Hydrogen peroxide,7722-84-1,OO,OO,-4.994,1.931,-2.835,-8.887,25.169
Tetrasodium pyrophosphate,7722-88-5,[Na+].[Na+].[Na+].[Na+].[O-][P]([O-])(=O)O[P]([O-])([O-])=O,O=P([O-])([O-])OP(=O)([O-])[O-].[Na+].[Na+].[Na+].[Na+],1.136,-0.9420000000000001,0.792,-8.375,-0.394
Phosphorus,7723-14-0,[PH2],[PH2],1.494,-0.966,0.598,-4.212,8.932
Bromine,7726-95-6,[Br],[Br],3.895,-1.5190000000000001,2.877,-3.239,7.459
Dipotassium peroxodisulphate,7727-21-1,[K+].[K+].[O-][S](=O)(=O)OO[S]([O-])(=O)=O,O=S(=O)([O-])OOS(=O)(=O)[O-].[K+].[K+],0.471,0.094,1.2,-9.326,7.188
Nitrogenn,7727-37-9,N#N,N#N,-2.233,0.963,-0.7759999999999999,-7.037000000000001,-5.516
Barium sulfate,7727-43-7,[Ba++].[O-][S]([O-])(=O)=O,O=S(=O)([O-])[O-].[Ba+2],0.264,0.19,0.18600000000000005,-7.018,13.084
Diammonium peroxydisulfate,7727-54-0,[NH4+].[NH4+].[O-][S](=O)(=O)OO[S]([O-])(=O)=O,O=S(=O)([O-])OOS(=O)(=O)[O-].[NH4+].[NH4+],-0.085,0.251,0.7859999999999999,-8.97,9.896
"Sulfuric acid disodium salt, decahydrate",7727-73-3,O.O.O.O.O.O.O.O.O.O.[Na+].[Na+].[O-][S]([O-])(=O)=O,O.O.O.O.O.O.O.O.O.O.O=S(=O)([O-])[O-].[Na+].[Na+],0.123,-0.315,0.8009999999999999,-6.131,8.585
"Water, distilled",7732-18-5,O,O,0.319,-0.40399999999999997,1.267,-4.9910000000000005,16.002
Zinc sulfate,7733-02-0,[Zn++].[O-][S]([O-])(=O)=O,O=S(=O)([O-])[O-].[Zn+2],0.363,0.218,0.16,-7.07,12.823
Potassium nitrate,7757-79-1,[K+].[O-][N+]([O-])=O,O=[N+]([O-])[O-].[K+],-0.977,-0.41700000000000004,0.195,-3.542,9.927
Disodium sulfate,7757-82-6,[Na+].[Na+].[O-][S]([O-])(=O)=O,O=S(=O)([O-])[O-].[Na+].[Na+],-0.043,-0.096,-0.093,-6.5729999999999995,3.16
Sodium sulfite,7757-83-7,[Na+].[Na+].[O-][S]([O-])=O,O=S([O-])[O-].[Na+].[Na+],0.124,-0.609,0.657,-7.045,-0.256
Magnesium hydrogenphosphate,7757-86-0,[Mg++].O[P]([O-])([O-])=O,O=P([O-])([O-])O.[Mg+2],2.129,0.379,-1.183,-10.179,8.903
Trimagnesium bis(orthophosphate),7757-87-1,[Mg++].[Mg++].[Mg++].[O-][P]([O-])([O-])=O.[O-][P]([O-])([O-])=O,O=P([O-])([O-])[O-].O=P([O-])([O-])[O-].[Mg+2].[Mg+2].[Mg+2],1.555,-0.455,0.921,-7.309,11.183
Calcium hydrogenphosphate,7757-93-9,[Ca++].O[P]([O-])([O-])=O,O=P([O-])([O-])O.[Ca+2],2.178,0.391,-1.119,-10.136000000000001,9.21
Potassium bromide,2/3/7758,[K+].[Br-],[Br-].[K+],2.412,-2.108,2.332,-3.545,4.367
Dipotassium hydrogenphosphate,11/4/7758,[K+].[K+].O[P]([O-])([O-])=O,O=P([O-])([O-])O.[K+].[K+],1.913,0.073,-1.16,-9.387,6.836
"Diphosphoric acid, disodium salt",7758-16-9,[Na+].[Na+].O[P]([O-])(=O)O[P](O)([O-])=O,O=P([O-])(O)OP(=O)([O-])O.[Na+].[Na+],2.603,0.275,-1.819,-12.88,4.836
Sodium chlorite,7758-19-2,[Na+].[O-][Cl]=O,[Na+].[O-][Cl+][O-],0.26,-0.747,1.58,-4.984,1.345
Calcium bis(dihydrogenphosphate),7758-23-8,[Ca++].O[P](O)([O-])=O.O[P](O)([O-])=O,O=P([O-])(O)O.O=P([O-])(O)O.[Ca+2],1.731,1.401,-2.644,-13.673,4.09