chemical_name,cas,smiles,canonical_smiles,log_p,log_s,kow,water-energy,pka
"Naphthalenesulfonic acid, dinonyl-, calcium salt",57855-77-3,[Ca++].CCCCCCCCCc1cc2ccccc2c(c1CCCCCCCCC)[S]([O-])(=O)=O.CCCCCCCCCc3cc4ccccc4c(c3CCCCCCCCC)[S]([O-])(=O)=O,CCCCCCCCCc1cc2ccccc2c(S(=O)(=O)[O-])c1CCCCCCCCC.CCCCCCCCCc1cc2ccccc2c(S(=O)(=O)[O-])c1CCCCCCCCC.[Ca+2],4.619,-6.056,8.799,-3.855,6.929
2-Cyano-N-((ethylamino)carbonyl-2-(methoxyimino)) acetamide,57966-95-7,CCNC(=O)NC(=O)\C(=N\OC)C#N,CCNC(=O)NC(=O)/C(C#N)=N/OC,-0.128,-0.915,0.217,-13.502,3.935
"Carbamic acid, [5-isocyanato-2(or 4)-methylphenyl]-, 2-ethylhexyl ester",58240-57-6,CCCCC(CC)COC(=O)Nc1cccc(CN=C=O)c1,CCCCC(CC)COC(=O)Nc1cccc(CN=C=O)c1,3.406,-4.138,4.738,-7.167999999999999,6.137
"Boric acid, ester with 2-[2-(2-methoxyethoxy)ethoxy]ethanol and 2,2'-oxybis[ethanol]",58391-97-2,COCCOCCOCCO.OCCOCCO.OB(O)O,COCCOCCOCCO.OB(O)O.OCCOCCO,-1.018,0.51,-1.4480000000000002,-9.805,10.076
2-(4-Isobutylphenyl)propionaldehyde oxime,58609-72-6,CC(C)Cc1ccc(cc1)C(C)C=NO,CC(C)Cc1ccc(C(C)C=NO)cc1,2.681,-3.8489999999999998,4.131,-5.197,11.202
"Phosphonic acid, [2-[[(2-chloroethoxy)(2-chloroethyl)phosphinyl]oxy]ethyl]-,bis(2-chloroethyl) ester",58823-09-9,ClCCO[P](=O)(CCCl)OCC[P](=O)(OCCCl)OCCCl,O=P(CCCl)(OCCCl)OCCP(=O)(OCCCl)OCCCl,4.543,-2.843,1.3159999999999998,-9.131,11.276
"Benzene, 1,2,4,5-tetrabromo-3,6-bis(pentabromophenoxy)-",58965-66-5,Brc1c(Br)c(Br)c(Oc2c(Br)c(Br)c(Oc3c(Br)c(Br)c(Br)c(Br)c3Br)c(Br)c2Br)c(Br)c1Br,Brc1c(Br)c(Br)c(Oc2c(Br)c(Br)c(Oc3c(Br)c(Br)c(Br)c(Br)c3Br)c(Br)c2Br)c(Br)c1Br,5.186,-9.523,8.101,-5.1370000000000005,5.898
"Cyclopentane, tetrachloro-",59808-78-5,ClC1(Cl)CCCC1(Cl)Cl,ClC1(Cl)CCCC1(Cl)Cl,4.729,-3.688,3.698,-1.212,10.512
Aluminium potassium fluoride,60304-36-1,[F-].[F-].[F-].[F-].[Al+3].[K+],[Al+3].[F-].[F-].[F-].[F-].[K+],1.011,-1.965,2.387,-2.615,4.759
"Naphthalene, 1,2,3,4-tetrahydro-5-(1-phenylethyl)-",60466-61-7,CC(c1ccccc1)c2cccc3CCCCc23,CC(c1ccccc1)c1cccc2c1CCCC2,4.2860000000000005,-4.867,6.199,-3.645,6.138
"2-Propenoic acid, 2-[[3-hydroxy-2,2-bis[[(1-oxo-2-propenyl)oxy]methyl]propoxy]methyl]-2-[[(1-oxo-2-propenyl)oxy]methyl]-1,3-propanediyl ester",60506-81-2,OCC(COCC(COC(=O)C=C)(COC(=O)C=C)COC(=O)C=C)(COC(=O)C=C)COC(=O)C=C,C=CC(=O)OCC(CO)(COCC(COC(=O)C=C)(COC(=O)C=C)COC(=O)C=C)COC(=O)C=C,2.3280000000000003,-3.7460000000000004,1.907,-8.717,7.235
"Silica, vitreous",60676-86-0,O=[Si]=O,O=[Si]=O,-5.921,0.73,0.552,-7.551,-0.951
"Acetic acid, [(3,5,6-trichloro-2-pyridinyl)oxy]-, ethyl ester",60825-27-6,CCOC(=O)COc1nc(Cl)c(Cl)cc1Cl,CCOC(=O)COc1nc(Cl)c(Cl)cc1Cl,3.48,-3.827,2.977,-5.561,4.771
"1,6-Hexanediamine, N,N'-bis(2,2,6,6-tetramethyl-4-piperidinyl)-",61260-55-7,CC1(C)CC(CC(C)(C)N1)NCCCCCCNC2CC(C)(C)NC(C)(C)C2,CC1(C)CC(NCCCCCCNC2CC(C)(C)NC(C)(C)C2)CC(C)(C)N1,-1.68,-3.307,1.939,-5.6739999999999995,10.064
"Terphenyl, hydrogenated",61788-32-7,C1CC=CC(C1)c2ccc(cc2)C3CCC=CC3,C1=CC(c2ccc(C3CC=CCC3)cc2)CCC1,4.107,-4.224,5.876,-2.475,4.436
"Butene, homopolymer, phosphosulfurized",61788-35-0,CCC=C,C=CCC,3.318,-1.517,2.456,1.963,4.292
"Phenol, styrenated",61788-44-1,Oc1ccc(C=C)cc1C=C,C=Cc1ccc(O)c(C=C)c1,2.205,-3.395,3.285,-6.739,8.877
"Amines, hydrogenated tallow alkyl",61788-45-2,CCCCCCCCCCCCCCCCCCN,CCCCCCCCCCCCCCCCCCN,2.649,-5.4579999999999975,6.8679999999999986,-1.371,10.527
"Alkanes, chlorinated",61788-76-9,CCCC(Cl)CCC(Cl)CC(Cl)C(Cl)CCC(Cl)CCC(Cl)C(Cl)CC(C)Cl,CCCC(Cl)CCC(Cl)CC(Cl)C(Cl)CCC(Cl)CCC(Cl)C(Cl)CC(C)Cl,5.705,-5.6229999999999976,6.5360000000000005,-1.325,9.746
"Fatty acids, C18-unsatd., dimers",61788-89-4,CCCCCCCCC(CCCCCCCCC(O)=O)C(CCCCCCCC(O)=O)CC\C=C/CCCCC,CCCCC/C=C\CCC(CCCCCCCC(=O)O)C(CCCCCCCC)CCCCCCCCC(=O)O,3.633,-5.345,8.729,-2.9,5.522
"1-Propanaminium, 3-amino-N-(carboxymethyl)-N,N-dimethyl-, N-coco acylderivs., chlorides, sodium salts",61789-39-7,[Na+].C[N+](C)(CCCN)CC([O-])=O,C[N+](C)(CCCN)CC(=O)[O-].[Na+],-2.8710000000000004,-1.815,-3.383,-6.65,7.0
"Naphthenic acids, cobalt salts",61789-51-3,[Co++].CCC1CCC(CCC([O-])=O)C1.CCC2CCC(CCC([O-])=O)C2,CCC1CCC(CCC(=O)[O-])C1.CCC1CCC(CCC(=O)[O-])C1.[Co+2],4.377,-3.15,3.997,-1.496,9.782
"Naphthenic acids, sodium salts",61790-13-4,[Na+].CCC1CCC(CCC([O-])=O)C1,CCC1CCC(CCC(=O)[O-])C1.[Na+],4.082,-3.105,3.749,-1.64,4.472
Kieselguhr,61790-53-2,O=[Si]=O,O=[Si]=O,-5.921,0.73,0.552,-7.551,-0.951
"1H-Imidazole-1-ethanol, 4,5-dihydro-, 2-norcoco alkyl derivs.",61791-38-6,OCCN1CCN=C1,OCCN1C=NCC1,-0.5870000000000001,-0.337,-0.405,-10.696,9.013
"Ethanol, 2,2'-iminobis-, N-tallow alkyl derivs.",61791-44-4,OCCNCCO,OCCNCCO,-2.577,0.325,-1.411,-11.263,8.656
"Amines, N-tallow alkyltrimethylenedi-",61791-55-7,CCNCCCN.CCNCCCN,CCNCCCN.CCNCCCN,-4.395,-1.125,-1.008,-7.712000000000001,10.52
"Dodecanamide, N-[3-(dimethyloxidoamino)propyl]-",61792-31-2,CCCCCCCCCCCC(=O)NCCC[N+](C)(C)[O-],CCCCCCCCCCCC(=O)NCCC[N+](C)(C)[O-],0.989,-3.8339999999999996,1.514,-5.292000000000001,7.579
"Cyclopropanecarboxylic acid, 3-(2,2-dichloroethenyl)-2,2-dimethyl-, methyl ester",61898-95-1,COC(=O)C1C(C=C(Cl)Cl)C1(C)C,COC(=O)C1C(C=C(Cl)Cl)C1(C)C,4.341,-5.0569999999999995,3.994,-4.27,8.99
Zirconium oxide sulphate,62010-10-0,[O--].[Zr+4].[O-][S]([O-])(=O)=O,O=S(=O)([O-])[O-].[O-2].[Zr+4],0.389,0.013000000000000001,0.22,-6.704,11.662
"Cyclopentene, heptachloro-",62111-47-1,ClC1C(=C(Cl)C(Cl)(Cl)C1(Cl)Cl)Cl,ClC1=C(Cl)C(Cl)(Cl)C(Cl)(Cl)C1Cl,4.613,-4.982,5.2189999999999985,-0.7240000000000001,7.291
"Acetonitrile, [ethyl(3-methylphenyl)amino]-",63133-74-4,CCN(CC#N)c1cccc(C)c1,CCN(CC#N)c1cccc(C)c1,3.5660000000000003,-3.429,2.611,-6.4,3.02
"Phosphorochloridous acid, bis(4-nonylphenyl) ester",63302-49-8,CCCCCCCCCc1ccc(OP(Cl)Oc2ccc(CCCCCCCCC)cc2)cc1,CCCCCCCCCc1ccc(OP(Cl)Oc2ccc(CCCCCCCCC)cc2)cc1,4.671,-6.403,8.88,-3.225,7.715
2-ethylhexyl octanoate,63321-70-0,CCCCCCCC(=O)OCC(CC)CCCC,CCCCCCCC(=O)OCC(CC)CCCC,5.654,-4.439,6.07,-1.454,6.589
"Alcohols, C12-15",63393-82-8,CCCCCCCCCCCCCCO,CCCCCCCCCCCCCCO,4.3210000000000015,-4.401,6.319,-2.019,7.866
"Paraffin waxes and Hydrocarbon waxes, chloro",63449-39-8,CCCC(Cl)CCCC(Cl)CCC(Cl)CCC(Cl)CCC(Cl)CCCC(Cl)CCC,CCCC(Cl)CCCC(Cl)CCC(Cl)CCC(Cl)CCC(Cl)CCCC(Cl)CCC,5.751,-5.704,7.47,-0.738,7.792
"Naphthalene, diisononyl-",63512-64-1,CC(C)CCCCCCc1ccc2ccccc2c1CCCCCCC(C)C,CC(C)CCCCCCc1ccc2ccccc2c1CCCCCCC(C)C,4.792,-6.461,9.637,-1.446,6.398
"1-Sulphonic acid, 4-diazo-3,4-dihydro-7-nitro-3-oxonaphthal-",63589-25-3,Oc1cc(c2cc(ccc2c1[N+]#N)[N+]([O-])=O)[S]([O-])(=O)=O,N#[N+]c1c(O)cc(S(=O)(=O)[O-])c2cc([N+](=O)[O-])ccc12,0.929,-2.861,1.796,-10.397,3.399
"4-Pentenoic acid, 3,3-dimethyl-, methyl ester",63721-05-1,COC(=O)CC(C)(C)C=C,C=CC(C)(C)CC(=O)OC,3.259,-2.379,2.502,-2.8280000000000003,7.283
"Benzoic acid, 3-[2-chloro-4-(trifluoromethyl)phenoxy]-",63734-62-3,OC(=O)c1cccc(Oc2ccc(cc2Cl)C(F)(F)F)c1,O=C(O)c1cccc(Oc2ccc(C(F)(F)F)cc2Cl)c1,1.872,-4.93,4.652,-5.619,4.3
Sepiolite,63800-37-3,O.[Mg++].[Mg++].O[Si]([O-])=O.O[Si]([O-])=O.[O-][Si]([O-])=O,O.O=[Si]([O-])O.O=[Si]([O-])O.O=[Si]([O-])[O-].[Mg+2].[Mg+2],-3.912,0.122,-0.55,-6.926,5.441
"Propanenitrile, 3-(isodecyloxy)-",64354-92-3,CC(C)CCCCCCCOCCC#N,CC(C)CCCCCCCOCCC#N,3.55,-3.528,4.117,-3.0389999999999997,11.57
Sodium 4-(or 5-)methyl-benzotriazole,64665-57-2,[Na+].Cc1cccc2n[n-]nc12,Cc1cccc2n[n-]nc12.[Na+],1.193,-2.1630000000000003,1.906,-8.154,3.28
"Hexanoic acid, 4,6,6,6-tetrachloro-3,3-dimethyl-, methyl ester",64667-33-0,COC(=O)CC(C)(C)C(Cl)CC(Cl)(Cl)Cl,COC(=O)CC(C)(C)C(Cl)CC(Cl)(Cl)Cl,4.508,-4.0489999999999995,3.685,-2.73,12.119
"6-Nitroaniline, 2,3-dichloro-",65078-77-5,Nc1c(Cl)c(Cl)ccc1[N+]([O-])=O,Nc1c([N+](=O)[O-])ccc(Cl)c1Cl,2.776,-3.0860000000000003,2.942,-7.3229999999999995,3.221
"Decanoic acid, ester with 1,2,3-propanetriol octanoate",65381-09-1,CCCCCCCCCC(O)=O.CCCCCCCC(O)=O.OCC(O)CO,CCCCCCCC(=O)O.CCCCCCCCCC(=O)O.OCC(O)CO,0.354,-1.514,0.929,-7.313,4.769
"Phosphoric acid, bis[(1,1-dimethylethyl)phenyl] phenyl ester",65652-41-7,CC(C)(C)c1ccccc1O[P](=O)(Oc2ccccc2)Oc3ccccc3C(C)(C)C,CC(C)(C)c1ccccc1OP(=O)(Oc1ccccc1)Oc1ccccc1C(C)(C)C,4.905,-6.026,5.82,-4.516,5.118
"1,2-Ethanediamine, N-(2-aminoethyl)-N'-[2-[2-(8Z)-8-heptadecenyl-4,5-dihydro-1H-imidazol-1-yl]ethyl]-",65817-50-7,CCCCCCCC\C=C/CCCCCCCC1=NCCN1CCNCCNCCN,CCCCCCCC/C=C\CCCCCCCC1=NCCN1CCNCCNCCN,0.812,-4.255,4.1610000000000005,-6.376,9.058
"Terpenes and Terpenoids, limonene fraction",65996-98-7,CC(=C)C1CCC(=CC1)C,C=C(C)C1CC=C(C)CC1,3.711,-3.2439999999999998,4.4460000000000015,-0.484,8.965
"2-Butenedioic acid (2Z)-, mono[2-[2-[2-(dodecyloxy)ethoxy]ethoxy]ethyl] ester",66104-67-4,CCCCCCCCCCCCOCCOCCOCCOC(=O)\C=C\C(O)=O,CCCCCCCCCCCCOCCOCCOCCOC(=O)/C=C/C(=O)O,1.844,-3.3169999999999997,4.3889999999999985,-6.473,6.591
"Glycine, N-(2-hydroxyethyl)-N-[2-[(1-oxododecyl)amino]ethyl]-, monosodium salt",66161-62-4,[Na+].CCCCCCCCCCCC(=O)NCCN(CCO)CC([O-])=O,CCCCCCCCCCCC(=O)NCCN(CCO)CC(=O)[O-].[Na+],2.303,-3.105,2.919,-7.957999999999999,6.3
"3-Pentanone, 1-(4-chlorophenyl)-4,4-dimethyl-",66346-01-8,CC(C)(C)C(=O)CCc1ccc(Cl)cc1,CC(C)(C)C(=O)CCc1ccc(Cl)cc1,4.724,-3.928,3.844,-4.039,9.661
"Alcohols, C9-11",66455-17-2,CCCCCCCCCCO,CCCCCCCCCCO,3.5860000000000003,-3.227,4.147,-2.68,7.634
"Isooctadecanoic acid, potassium salt",66469-15-6,[K+].CC(C)CCCCCCCCCCCCCCC([O-])=O,CC(C)CCCCCCCCCCCCCCC(=O)[O-].[K+],4.933,-4.87,8.126,-1.49,8.379
"2-Propanol, 1-(tert-dodecylthio)-",67124-09-8,CC(O)CSCCCCCCCCC(C)(C)C,CC(O)CSCCCCCCCCC(C)(C)C,4.509,-3.9789999999999996,5.55,-2.855,9.634
"2-Chloro-N-(2,6-dimethylphenyl)-N-(1H-pyrazol-1-ylmethyl)acetamide",67129-08-2,Cc1cccc(C)c1N(Cn2cccn2)C(=O)CCl,Cc1cccc(C)c1N(Cn1cccn1)C(=O)CCl,2.441,-3.6260000000000003,1.969,-9.822000000000001,3.2
"cis-4-[3-(p-tert-Butylphenyl)-2-methylpropyl]-2,6-dimethylmorpholine",67564-91-4,CC(CN1C[C@@H](C)O[C@@H](C)C1)Cc2ccc(cc2)C(C)(C)C,CC(Cc1ccc(C(C)(C)C)cc1)CN1C[C@H](C)O[C@H](C)C1,4.176,-3.9010000000000002,5.183,-4.654,8.227
"Amines, C10-16-alkyldimethyl",67700-98-5,CCCCCCCCCCCCCN(C)C,CCCCCCCCCCCCCN(C)C,2.404,-4.462,5.903,-1.7109999999999999,10.21
"Amines, di-C14-18-alkylmethyl",67700-99-6,CCCCCCCCCCCCCCCCN(C)CCCCCCCCCCCCCCCC,CCCCCCCCCCCCCCCCN(C)CCCCCCCCCCCCCCCC,4.621,-5.962999999999999,9.892,-1.151,9.968
"Fatty acids, C14-18",67701-02-4,CCCCCCCCCCCCCCCC(O)=O,CCCCCCCCCCCCCCCC(=O)O,3.29,-4.468999999999999,6.897,-2.83,5.168
"Fatty acids, C16-18",67701-03-5,CCCCCCCCCCCCCCCCC(O)=O,CCCCCCCCCCCCCCCCC(=O)O,3.47,-4.633,7.301,-2.699,5.225
"Fatty acids, C14-18 and C16-18-unsatd.",67701-06-8,OC(=O)\C=C\C=C\C=C\C=C\C=C\C=C\C=C,C=C/C=C/C=C/C=C/C=C/C=C/C=C/C(=O)O,-0.898,-2.2840000000000003,4.449,-8.429,6.258
"Glycerides, C14-18",67701-27-3,CCCCCCCCCCCCC(=O)OCC(O)CO,CCCCCCCCCCCCC(=O)OCC(O)CO,3.403,-3.408,3.957,-6.08,6.985
"Glycerides, C14-18 and C16-18-unsatd.",67701-29-5,CCCCCCC/C=C/C/C=C/CC(=O)OC(O)C(O)CC(O)=O,CCCCCCC/C=C/C/C=C/CC(=O)OC(O)C(O)CC(=O)O,0.466,-2.577,3.504,-8.916,4.563
"N-Propyl-N-2,4,6-trichlorophenoxy-ethyl-imidazole-1-carboxamide",67747-09-5,CCCN(CCOc1c(Cl)cc(Cl)cc1Cl)C(=O)n2ccnc2,CCCN(CCOc1c(Cl)cc(Cl)cc1Cl)C(=O)n1ccnc1,3.574,-4.75,4.087,-9.121,8.366
"Alcohols, C12-18",67762-25-8,CCCCCCCCCCCCCCCO,CCCCCCCCCCCCCCCO,4.435,-4.603,6.797999999999999,-1.905,7.906
"Alcohols, C16-18",67762-27-0,CCCCCCCCCCCCCCCCO.CCCCCCCCCCCCCCCCCCO,CCCCCCCCCCCCCCCCCCO.CCCCCCCCCCCCCCCCO,4.62,-4.939,7.595,-1.716,7.971
"Alcohols, C14-18",67762-30-5,CCCCCCCCCCCCCCO,CCCCCCCCCCCCCCO,4.3210000000000015,-4.401,6.319,-2.019,7.866
"Fatty acids, C6-12",67762-36-1,CCCCCC(O)=O,CCCCCC(=O)O,0.032,-1.219,1.175,-5.649,4.628
"Fatty acids, C6-12, methyl esters",67762-39-4,CCCCCCCCCC(=O)OC.CCCCCCCC(=O)OC,CCCCCCCC(=O)OC.CCCCCCCCCC(=O)OC,4.5539999999999985,-3.0610000000000004,3.924,-2.157,5.872
"Fatty acids, C10-16, Me esters",67762-40-7,CCCCCCCCCCCCC(=O)OC,CCCCCCCCCCCCC(=O)OC,5.004,-4.206,6.249,-1.742,6.527
"Alcohols, C10-16",67762-41-8,CCCCCCCCCCCCCCO,CCCCCCCCCCCCCCO,4.3210000000000015,-4.401,6.319,-2.019,7.866
"Fatty acids, C6-12, sodium salts",67762-44-1,[Na+].CCCCCCCCC([O-])=O,CCCCCCCCC(=O)[O-].[Na+],3.785,-2.945,4.011,-2.7260000000000004,3.232
"Carboxylic acids, C5-9, hexaesters with dipentaerythritol",67762-52-1,CCCCC(=O)OCC(CO)(CO)COCC(CO)(CO)CO,CCCCC(=O)OCC(CO)(CO)COCC(CO)(CO)CO,2.333,-1.507,-0.6679999999999999,-12.128,8.882
"Fatty acids, C5-9, tetraesters with pentaerythritol",67762-53-2,CCCCCCCOCC(COCCCCCCC)(COCCCCCCC)COCCCCCCC,CCCCCCCOCC(COCCCCCCC)(COCCCCCCC)COCCCCCCC,5.32,-4.569,7.882999999999999,-3.71,7.837
"2,5-Pyrrolidinedione, 1-[2-[[2-[[2-[(2-aminoethyl)amino]ethyl]amino]ethyl]a",67762-72-5,CC(=C)CC1CC(=O)N(CCNCCNCCNCCN)C1=O,C=C(C)CC1CC(=O)N(CCNCCNCCNCCN)C1=O,-1.089,-2.136,-0.634,-11.069,8.847
"2,5-Furandione, dihydro-, monopolyisobutylene derivs.",67762-77-0,CC(=C)CC1CC(=O)OC1=O,C=C(C)CC1CC(=O)OC1=O,0.153,-1.7919999999999998,1.495,-5.917999999999999,5.76
"2,5-Furandione, dihydro-, monopolybutenyl derivs.",67762-79-2,C=CCCC1CC(=O)OC1=O,C=CCCC1CC(=O)OC1=O,1.137,-1.806,1.199,-5.41,4.764
"Phosphoric acid, mono(2-ethylhexyl) esrer, compd.with tert-dodecanamine",67763-14-8,CCCCC(CC)CO[P](O)(O)=O.CC(C)(C)CCCCCCCCN,CC(C)(C)CCCCCCCCN.CCCCC(CC)COP(=O)(O)O,2.004,-2.45,1.108,-5.479,7.617
"Benzene, C10-13-alkyl-deriv.",67774-74-7,CCCCCCCCCCCc1ccccc1,CCCCCCCCCCCc1ccccc1,4.587,-5.4639999999999995,8.309,-0.7090000000000001,6.366
"Benzenesulfonic acid, 2,2'-(1,2-ethenediyl)bis[5-[[4-[bis(2-hydroxypropyl)amino]-6-[(4-sulfophenyl)amino]-1,3,5-triazin-2-yl]amino]-, tetrasodium salt",67786-25-8,[Na+].[Na+].[Na+].[Na+].CC(O)CN(CC(C)O)c1nc(Nc2ccc(cc2)[S]([O-])(=O)=O)nc(Nc3ccc(/C=C/c4ccc(Nc5nc(Nc6ccc(cc6)[S]([O-])(=O)=O)nc(n5)N(CC(C)O)CC(C)O)cc4[S]([O-])(=O)=O)c(c3)[S]([O-])(=O)=O)n1,CC(O)CN(CC(C)O)c1nc(Nc2ccc(S(=O)(=O)[O-])cc2)nc(Nc2ccc(/C=C/c3ccc(Nc4nc(Nc5ccc(S(=O)(=O)[O-])cc5)nc(N(CC(C)O)CC(C)O)n4)cc3S(=O)(=O)[O-])c(S(=O)(=O)[O-])c2)n1.[Na+].[Na+].[Na+].[Na+],2.679,-3.7539999999999996,3.064,-12.404000000000002,3.528
"Tetradecanamide, N-[3-(dimethyloxidoamino)propyl]-",67806-10-4,CCCCCCCCCCCCCC(=O)NCCC[N+](C)(C)[O-],CCCCCCCCCCCCCC(=O)NCCC[N+](C)(C)[O-],1.462,-4.158,2.349,-4.887,7.65
"Octanoic acid, 2-sulfo-, 1-(2-ethylhexyl) ester, sodium salt",67845-71-0,[Na+].CCCCCCC(C(=O)OCC(CC)CCCC)[S]([O-])(=O)=O,CCCCCCC(C(=O)OCC(CC)CCCC)S(=O)(=O)[O-].[Na+],4.19,-3.924,5.051,-4.739,6.324
"Phenol, 2,6-bis[[bis(2-hydroxyethyl)amino]methyl]-4-dodecyl-",67845-80-1,CCCCCCCCCCCCc1cc(CN(CCO)CCO)c(O)c(CN(CCO)CCO)c1,CCCCCCCCCCCCc1cc(CN(CCO)CCO)c(O)c(CN(CCO)CCO)c1,2.104,-4.053999999999999,4.063,-9.025,6.646
"1H-Imidazolium, 1-ethyl-2-(8Z)-8-heptadecenyl-4,5-dihydro-1-[2-[[(9Z)-1-oxo-9-octadecenyl]amino]ethyl]-, ethyl sulfate",67846-14-4,CCCCCCCC/C=C/CCCCCCCC(=O)NCC[N+]1(CC)CCN=C1CCCCCCC\C=C\CCCCCCCC.CCO[S]([O-])(=O)=O,CCCCCCCC/C=C/CCCCCCCC(=O)NCC[N+]1(CC)CCN=C1CCCCCCC/C=C/CCCCCCCC.CCOS(=O)(=O)[O-],3.189,-4.436,5.367000000000001,-4.088,7.122
Dimethylbis[2-[(1-oxooctadecyl)oxy]ethyl]ammonium chloride,67846-68-8,[Cl-].CCCCCCCCCCCCCCCCCC(=O)OCC[N+](C)(C)CCOC(=O)CCCCCCCCCCCCCCCCC,CCCCCCCCCCCCCCCCCC(=O)OCC[N+](C)(C)CCOC(=O)CCCCCCCCCCCCCCCCC.[Cl-],4.557,-5.5870000000000015,6.987,-2.231,7.87
"Zincate(2-), [[N,N'-1,2-ethanediylbis[N-[(carboxy-.kappa.O)methyl]glycinato-.kappa.N,.kappa.O]](4-)]-, diammonium, (OC-6-21-)-",67859-51-2,N.N.[Zn++].OC(=O)CN(CCN(CC(O)=O)CC([O-])=O)CC([O-])=O,N.N.O=C([O-])CN(CCN(CC(=O)[O-])CC(=O)O)CC(=O)O.[Zn+2],-2.165,-1.018,-2.298,-11.565,6.913
"1-Triacontanol, aluminum salt",67905-26-4,[Al+3].CCCCCCCCCCCCCCCCCCCCCCCCCCCCCC[O-].CCCCCCCCCCCCCCCCCCCCCCCCCCCCCC[O-].CCCCCCCCCCCCCCCCCCCCCCCCCCCCCC[O-],CCCCCCCCCCCCCCCCCCCCCCCCCCCCCC[O-].CCCCCCCCCCCCCCCCCCCCCCCCCCCCCC[O-].CCCCCCCCCCCCCCCCCCCCCCCCCCCCCC[O-].[Al+3],5.46,-6.185,10.738,-0.456,9.437
"1-Octacosanol, aluminum salt",67905-27-5,[Al+3].CCCCCCCCCCCCCCCCCCCCCCCCCCCC[O-].CCCCCCCCCCCCCCCCCCCCCCCCCCCC[O-].CCCCCCCCCCCCCCCCCCCCCCCCCCCC[O-],CCCCCCCCCCCCCCCCCCCCCCCCCCCC[O-].CCCCCCCCCCCCCCCCCCCCCCCCCCCC[O-].CCCCCCCCCCCCCCCCCCCCCCCCCCCC[O-].[Al+3],5.436,-6.115,10.527,-0.474,9.502
"1-Hexacosanol, aluminum salt",67905-28-6,[Al+3].CCCCCCCCCCCCCCCCCCCCCCCCCC[O-].CCCCCCCCCCCCCCCCCCCCCCCCCC[O-].CCCCCCCCCCCCCCCCCCCCCCCCCC[O-],CCCCCCCCCCCCCCCCCCCCCCCCCC[O-].CCCCCCCCCCCCCCCCCCCCCCCCCC[O-].CCCCCCCCCCCCCCCCCCCCCCCCCC[O-].[Al+3],5.407,-6.035,10.285,-0.495,9.576
"1-Tetracosanol, alminum salt",67905-29-7,[Al+3].CCCCCCCCCCCCCCCCCCCCCCCC[O-].CCCCCCCCCCCCCCCCCCCCCCCC[O-].CCCCCCCCCCCCCCCCCCCCCCCC[O-],CCCCCCCCCCCCCCCCCCCCCCCC[O-].CCCCCCCCCCCCCCCCCCCCCCCC[O-].CCCCCCCCCCCCCCCCCCCCCCCC[O-].[Al+3],5.3729999999999976,-5.938,10.005,-0.519,9.661
"1-Docosanol, aluminum salt",67905-30-0,[Al+3].CCCCCCCCCCCCCCCCCCCCCC[O-].CCCCCCCCCCCCCCCCCCCCCC[O-].CCCCCCCCCCCCCCCCCCCCCC[O-],CCCCCCCCCCCCCCCCCCCCCC[O-].CCCCCCCCCCCCCCCCCCCCCC[O-].CCCCCCCCCCCCCCCCCCCCCC[O-].[Al+3],5.332999999999998,-5.822,9.675,-0.5479999999999999,9.761
"1-Eicosanol, aluminum salt",67905-31-1,[Al+3].CCCCCCCCCCCCCCCCCCCC[O-].CCCCCCCCCCCCCCCCCCCC[O-].CCCCCCCCCCCCCCCCCCCC[O-],CCCCCCCCCCCCCCCCCCCC[O-].CCCCCCCCCCCCCCCCCCCC[O-].CCCCCCCCCCCCCCCCCCCC[O-].[Al+3],5.285,-5.6770000000000005,9.282,-0.5820000000000001,9.883
"1-Tetradecanol, aluminum salt",67905-32-2,[Al+3].CCCCCCCCCCCCCC[O-].CCCCCCCCCCCCCC[O-].CCCCCCCCCCCCCC[O-],CCCCCCCCCCCCCC[O-].CCCCCCCCCCCCCC[O-].CCCCCCCCCCCCCC[O-].[Al+3],5.057,-4.955,7.461,-0.736,10.401
"Phosphonic acid, (1-hydroxyethylidene)bis-, potassium salt",67953-76-8,[K+].[K+].[K+].[K+].CC(O)([P]([O-])([O-])=O)[P]([O-])([O-])=O,CC(O)(P(=O)([O-])[O-])P(=O)([O-])[O-].[K+].[K+].[K+].[K+],0.118,-1.33,0.265,-13.152000000000001,5.624
"1,2,4-Benzenetricarboxylic acid, decyl octyl ester",67989-23-5,CCCCCCCCCCOC(=O)c1ccc(cc1C(=O)OCCCCCCCC)C([O-])=O,CCCCCCCCCCOC(=O)c1ccc(C(=O)[O-])cc1C(=O)OCCCCCCCC,4.904,-5.931,8.222999999999999,-4.7,5.825
"9-Octadecenoic acid (9Z)-, ester with 2,2-dimethyl-1,3-propanediol",67989-24-6,CCCCCCCC\C=C/CCCCCCCC(=O)OCC(C)(C)CO,CCCCCCCC/C=C\CCCCCCCC(=O)OCC(C)(C)CO,5.232,-4.365,6.766,-3.77,7.003
"Quaternary ammonium compounds, di-C14-18-alkyldimethyl, Me sulfates",68002-58-4,CCCCCCCCCCCCCCCC[N+](C)(C)CCCCCCCCCCCCCCCC.CO[S]([O-])(=O)=O,CCCCCCCCCCCCCCCC[N+](C)(C)CCCCCCCCCCCCCCCC.COS(=O)(=O)[O-],2.983,-4.762,4.577,-1.6369999999999998,8.259
"Quaternary ammonium compounds, di-C14-18-alkyldimethyl, chlorides",68002-59-5,[Cl-].CCCCCCCCCCCCCCCC[N+](C)(C)CCCCCCCCCCCCCCCC,CCCCCCCCCCCCCCCC[N+](C)(C)CCCCCCCCCCCCCCCC.[Cl-],3.383,-5.876,6.6370000000000005,-0.45399999999999996,8.712
"Nitriles, C16 and C18-unsatd.",68002-64-2,CCCCCCCCCCCCCCCC#N,CCCCCCCCCCCCCCCC#N,4.6,-4.968,7.131,-1.3330000000000002,9.88
"Nitriles, C16-18",68002-65-3,CCCCCCCCCCCCCCCCC#N,CCCCCCCCCCCCCCCCC#N,4.676,-5.114,7.512,-1.27,9.796
"Nitriles, C14-18",68002-66-4,CCCCCCCCCCCCCC#N,CCCCCCCCCCCCCC#N,4.4030000000000005,-4.615,6.207999999999998,-1.485,10.083
"Fatty acids, C16-22",68002-88-0,CCCCCCCCCCCCCCCCCCC(O)=O,CCCCCCCCCCCCCCCCCCC(=O)O,3.775,-4.919,7.991,-2.472,5.352
"Fatty acids, C10-16",68002-90-4,CCCCCCCCCCCCC(O)=O,CCCCCCCCCCCCC(=O)O,2.619,-3.844,5.3679999999999986,-3.302,4.986
"Phenol, bis-tert-butyldodecyl-",68025-37-6,CCCCCCCCCCCCc1c(O)ccc(c1C(C)(C)C)C(C)(C)C,CCCCCCCCCCCCc1c(O)ccc(C(C)(C)C)c1C(C)(C)C,5.68,-6.013999999999999,8.439,-2.3169999999999997,8.732
"1-Propene, 2-methyl-, homopolymer, chlorinated",68037-14-9,CC(C)=C,C=C(C)C,2.227,-1.645,2.546,0.38,14.917
"2-Butenedioic acid (2E)-, reaction products with linoleic acid",68037-30-9,CCCCC/C=C\C\C=C/CCCCCCCC(O)=O.OC(=O)\C=C\C(O)=O,CCCCC/C=C\C/C=C\CCCCCCCC(=O)O.O=C(O)/C=C/C(=O)O,-0.409,-2.369,3.0780000000000003,-6.943,4.647
Sodium C10-18-alkyl-sulfonates,68037-49-0,[Na+].CCCCCCCCCCCCCC[S]([O-])(=O)=O,CCCCCCCCCCCCCCS(=O)(=O)[O-].[Na+],4.687,-3.8369999999999997,5.544,-3.3680000000000003,6.847
"Amines, C14-18-alkyl",68037-91-2,CCCCCCCCCCCCCCN,CCCCCCCCCCCCCCN,1.769,-4.893,5.049,-1.6869999999999998,10.528
"Amines, C16-18 and C18-unsatd. alkyl",68037-95-6,CCCCCCCCCCCCCCCCN,CCCCCCCCCCCCCCCCN,2.241,-5.21,6.049,-1.51,10.538
"3-Cyclohexene-1-carboxaldehyde, 2,4-dimethyl-",68039-49-6,CC1C=C(C)CCC1C=O,CC1=CC(C)C(C=O)CC1,2.859,-2.3890000000000002,2.947,-2.866,8.597
"1,3-Pentanediol, 2,2,4-trimethyl-, dibenzoate",68052-23-3,CC(C)C(O)C(C)(C)CO.OC(=O)c1ccccc1.OC(=O)c2ccccc2,CC(C)C(O)C(C)(C)CO.O=C(O)c1ccccc1.O=C(O)c1ccccc1,-0.276,-1.905,1.55,-8.579,4.528