chemical_name,cas,smiles,canonical_smiles,log_p,log_s,kow,water-energy,pka
"Triphosphoric acid, pentasodium salt",7758-29-4,[Na+].[Na+].[Na+].[Na+].[Na+].[O-][P]([O-])(=O)O[P]([O-])(=O)O[P]([O-])([O-])=O,O=P([O-])([O-])OP(=O)([O-])OP(=O)([O-])[O-].[Na+].[Na+].[Na+].[Na+].[Na+],1.3259999999999998,-1.15,0.985,-9.334,0.602
Calcium phosphate (3:2),7758-87-4,[Ca++].[Ca++].[Ca++].[O-][P]([O-])([O-])=O.[O-][P]([O-])([O-])=O,O=P([O-])([O-])[O-].O=P([O-])([O-])[O-].[Ca+2].[Ca+2].[Ca+2],1.681,-0.439,0.938,-7.2410000000000005,11.586
Copper monochloride,7758-89-6,Cl[Cu],Cl[Cu],3.483,-0.8390000000000001,2.072,-2.512,-3.87
Iron dichloride,7758-94-3,[Cl-].[Cl-].[Fe++],[Cl-].[Cl-].[Fe+2],2.665,-1.9669999999999999,2.959,-3.216,10.351
Lead chromate(PbCrO4),7758-97-6,[Pb++].[O-][Cr]([O-])(=O)=O,O=[Cr](=O)([O-])[O-].[Pb+2],0.295,0.39799999999999996,0.464,-7.379,14.951
Copper (II) sulfate,7758-98-7,[Cu++].[O-][S]([O-])(=O)=O,O=S(=O)([O-])[O-].[Cu+2],0.252,0.20800000000000002,0.067,-6.827000000000001,14.897
"Copper (II) sulfate, pentahydrate",7758-99-8,O.O.O.O.O.[Cu++].[O-][S]([O-])(=O)=O,O.O.O.O.O.O=S(=O)([O-])[O-].[Cu+2],0.217,-0.114,0.675,-6.5,15.643
Strontium sulphate,2/6/7759,[Sr++].[O-][S]([O-])(=O)=O,O=S(=O)([O-])[O-].[Sr+2],0.245,0.215,0.04,-6.966,12.546
Silver nitrate,7761-88-8,[Ag+].[O-][N+]([O-])=O,O=[N+]([O-])[O-].[Ag+],-1.11,-0.4270000000000001,0.02,-3.3089999999999997,8.87
Disodium thiosulfate(Na2S2O3),7772-98-7,O.O.O.O.O.[Na+].[Na+].[O-][S]([S-])(=O)=O,O.O.O.O.O.O=S(=O)([O-])[S-].[Na+].[Na+],0.2,-0.536,1.551,-5.961,5.766
Sodium chlorate,9/9/7775,[Na+].[O-][Cl](=O)=O,[Na+].[O-][Cl+2]([O-])[O-],0.3670000000000001,-0.8170000000000001,0.8759999999999999,-7.518,8.815
Sodium chromate(Na2CrO4),11/3/7775,[Na+].[Na+].[O-][Cr]([O-])(=O)=O,O=[Cr](=O)([O-])[O-].[Na+].[Na+],-0.01,0.076,0.02,-7.079,2.334
Sodium dithionite,7775-14-6,[Na+].[Na+].[O-][S](=O)[S]([O-])=O,O=S([O-])S(=O)[O-].[Na+].[Na+],-0.315,-0.532,1.206,-9.792,-1.774
"sodium metaborate, anhydrous",7775-19-1,[Na+].[O-]B=O,O=B[O-].[Na+],-1.646,-0.32299999999999995,1.439,-5.267,-1.125
Disodium peroxydisulfate,7775-27-1,[Na+].[Na+].[O-][S](=O)(=O)OO[S]([O-])(=O)=O,O=S(=O)([O-])OOS(=O)(=O)[O-].[Na+].[Na+],0.318,0.08199999999999999,1.172,-9.295,2.858
Calcium sulfate,7778-18-9,[Ca++].[O-][S]([O-])(=O)=O,O=S(=O)([O-])[O-].[Ca+2],0.281,0.218,0.084,-6.92,12.445
Arsenic acid,7778-39-4,O[As](O)(O)=O,O=[As](O)(O)O,-1.622,2.779,-3.776,-16.569000000000003,4.302
Potassium dichromate  (K2Cr2O7),7778-50-9,[K+].[K+].[O-][Cr](=O)(=O)O[Cr]([O-])(=O)=O,O=[Cr](=O)([O-])O[Cr](=O)(=O)[O-].[K+].[K+],0.358,0.37799999999999995,0.301,-8.902999999999999,5.191
Tripotassium phosphate,7778-53-2,[K+].[K+].[K+].[O-][P]([O-])([O-])=O,O=P([O-])([O-])[O-].[K+].[K+].[K+],1.262,-0.701,0.741,-6.7620000000000005,7.949
Calcium hypochlorite,7778-54-3,[Ca++].[O-]Cl.[O-]Cl,[Ca+2].[O-]Cl.[O-]Cl,2.795,-0.777,1.971,-3.8339999999999996,2.138
Potassium dihydrogenphosphate,7778-77-0,[K+].O[P](O)([O-])=O,O=P([O-])(O)O.[K+],1.615,1.127,-2.553,-12.964,3.749
Dipotassium sulfate,7778-80-5,[K+].[K+].[O-][S]([O-])(=O)=O,O=S(=O)([O-])[O-].[K+].[K+],0.21600000000000005,-0.075,-0.034,-6.609,9.192
Zinc phosphate (3:2),7779-90-0,[Zn++].[Zn++].[Zn++].[O-][P]([O-])([O-])=O.[O-][P]([O-])([O-])=O,O=P([O-])([O-])[O-].O=P([O-])([O-])[O-].[Zn+2].[Zn+2].[Zn+2],1.802,-0.4370000000000001,1.019,-7.432,12.083
Oxygen,7782-44-7,O,O,0.319,-0.40399999999999997,1.267,-4.9910000000000005,16.002
Chlorine,7782-50-5,[Cl],[Cl],2.985,-1.479,2.721,-2.9730000000000003,9.375
"Iron (II) sulfate, heptahydrate",7782-63-0,O.O.O.O.O.O.O.[Fe++].[O-][S]([O-])(=O)=O,O.O.O.O.O.O.O.O=S(=O)([O-])[O-].[Fe+2],0.21,-0.15,0.769,-6.388,15.869
Nitrosylsulphuric acid,7782-78-7,O[S](=O)(=O)ON=O,O=NOS(=O)(=O)O,-0.8959999999999999,0.997,-4.07,-11.352,2.141
Hydrogen sulfide,6/4/7783,S,S,4.398,-1.288,2.389,-2.7760000000000002,17.553
Diammonium thiosulfate((NH4)2-S2O3),7783-18-8,N.N.O[S](O)(=O)=S,N.N.O=S(O)(O)=S,-0.318,0.9690000000000001,-2.838,-10.203,2.741
Diammonium sulfate,7783-20-2,[NH4+].[NH4+].[O-][S]([O-])(=O)=O,O=S(=O)([O-])[O-].[NH4+].[NH4+],-0.68,0.195,-0.536,-5.97,14.456
Diammonium hydrogenphosphate,7783-28-0,[NH4+].[NH4+].O[P]([O-])([O-])=O,O=P([O-])([O-])O.[NH4+].[NH4+],1.113,0.34299999999999997,-1.622,-8.786,11.227
silicon tetrafluoride,7783-61-1,[F-].[F-].[F-].[F-].[Si+4],[F-].[F-].[F-].[F-].[Si+4],0.743,-1.9280000000000002,2.772,-2.32,6.162
Aluminium fluoride(AlF3),7784-18-1,[F-].[F-].[F-].[Al+3],[Al+3].[F-].[F-].[F-],1.055,-1.939,2.689,-2.395,5.469
"Sulfuric acid, aluminum potassium salt (2:1:1), dodecahydrate",7784-24-9,O.O.O.O.O.O.O.O.O.O.O.O.[Al+3].[K+].[O-][S]([O-])(=O)=O.[O-][S]([O-])(=O)=O,O.O.O.O.O.O.O.O.O.O.O.O.O=S(=O)([O-])[O-].O=S(=O)([O-])[O-].[Al+3].[K+],0.185,-0.132,0.654,-6.454,14.157
Aluminum sulfide (3:2),7784-31-8,O.O.O.O.O.O.O.O.O.[Al+3].[Al+3].[O-][S]([O-])(=O)=O.[O-][S]([O-])(=O)=O.[O-][S]([O-])(=O)=O,O.O.O.O.O.O.O.O.O.O=S(=O)([O-])[O-].O=S(=O)([O-])[O-].O=S(=O)([O-])[O-].[Al+3].[Al+3],0.146,0.045,0.404,-6.693,14.664
"Bicyclo[3.1.1]hept-2-ene, 2,6,6-trimethyl-, (1S,5S)-",7785-26-4,CC1=CC[C@H]2C[C@@H]1C2(C)C,CC1=CC[C@H]2C[C@@H]1C2(C)C,4.159,-4.065,4.592,-1.136,7.774
"Bicyclo[3.1.1]hept-2-ene, 2,6,6-trimethyl-, (1R,5R)-",7785-70-8,CC1=CC[C@@H]2C[C@H]1C2(C)C,CC1=CC[C@@H]2C[C@H]1C2(C)C,4.256,-4.114,4.503,-1.3,7.836
Manganese [II] sulphate,7785-87-7,[Mn++].[O-][S]([O-])(=O)=O,O=S(=O)([O-])[O-].[Mn+2],0.183,0.223,0.027000000000000003,-6.858,15.357
"Phenol, 2,2'-methylenebis[4-methyl-6-nonyl-",7786-17-6,CCCCCCCCCc1cc(C)cc(Cc2cc(C)cc(CCCCCCCCC)c2O)c1O,CCCCCCCCCc1cc(C)cc(Cc2cc(C)cc(CCCCCCCCC)c2O)c1O,4.631,-6.162000000000001,9.116,-4.235,7.528
Magnesium chloride,7786-30-3,[Mg++].[Cl-].[Cl-],[Cl-].[Cl-].[Mg+2],2.607,-2.052,3.277,-3.4360000000000004,6.688
Nickel sulfate,7786-81-4,[Ni++].[O-][S]([O-])(=O)=O,O=S(=O)([O-])[O-].[Ni+2],0.198,0.198,-0.043,-6.755,15.082
"Chromium potassium bis(sulphate), dodecahydrate",7788-99-0,O.O.O.O.O.O.O.O.O.O.O.O.[K+].[Cr+3].[O-][S]([O-])(=O)=O.[O-][S]([O-])(=O)=O,O.O.O.O.O.O.O.O.O.O.O.O.O=S(=O)([O-])[O-].O=S(=O)([O-])[O-].[Cr+3].[K+],0.198,-0.149,0.669,-6.428,14.679
"Chromic acid  (H2CrO4), strontium salt",6/2/7789,[Sr++].[O-][Cr]([O-])(=O)=O,O=[Cr](=O)([O-])[O-].[Sr+2],0.264,0.413,0.165,-7.532,12.467
Ammonium dichromate,9/5/7789,[NH4+].[NH4+].[O-][Cr](=O)(=O)O[Cr]([O-])(=O)=O,O=[Cr](=O)([O-])O[Cr](=O)(=O)[O-].[NH4+].[NH4+],-0.243,0.556,-0.09,-8.517999999999999,7.356
"Sodium dichromate, dihydrate",7789-12-0,O.O.[Na+].[Na+].[O-][Cr](=O)(=O)O[Cr]([O-])(=O)=O,O.O.O=[Cr](=O)([O-])O[Cr](=O)(=O)[O-].[Na+].[Na+],0.18600000000000005,0.23399999999999999,0.442,-8.49,1.169
Fluorosulfuric acid,7789-21-1,O[S](F)(=O)=O,O=S(=O)(O)F,0.117,1.351,-3.767,-8.663,0.479
Potassium fluoride,7789-23-3,[F-].[K+],[F-].[K+],0.961,-1.9809999999999999,1.795,-3.069,3.549
Calcium bromide,7789-41-5,[Ca++].[Br-].[Br-],[Br-].[Br-].[Ca+2],3.189,-2.114,3.26,-3.51,6.803
Calcium fluoride,7789-75-5,[F-].[F-].[Ca++],[Ca+2].[F-].[F-],1.229,-1.9069999999999998,2.793,-2.861,4.946
Cerium trichloride,7790-86-5,[Cl-].[Cl-].[Cl-].[Ce+3],[Ce+3].[Cl-].[Cl-].[Cl-],2.8110000000000004,-2.029,3.269,-3.01,8.797
Chlorosulfuric acid,7790-94-5,O[S](Cl)(=O)=O,O=S(=O)(O)Cl,-0.6729999999999999,1.224,-3.623,-9.214,1.123
Ammonium perchlorate,7790-98-9,[NH4+].[O-][Cl](=O)(=O)=O,[NH4+].[O-][Cl+3]([O-])([O-])[O-],0.5870000000000001,-0.727,1.175,-5.945,22.289
"Magnesium chloride, hexahydrate",7791-18-6,O.O.O.O.O.O.[Mg++].[Cl-].[Cl-],O.O.O.O.O.O.[Cl-].[Cl-].[Mg+2],1.1,-0.963,1.891,-4.649,11.961
"Nickel chloride (NiCl2), hexahydrate",7791-20-0,O.O.O.O.O.O.[Cl-].[Cl-].[Ni++],O.O.O.O.O.O.[Cl-].[Cl-].[Ni+2],1.104,-0.956,1.7719999999999998,-4.53,14.329
Sulfuryl dichloride,7791-25-5,Cl[S](Cl)(=O)=O,O=S(=O)(Cl)Cl,-1.179,0.008,1.389,-4.3,4.893
Ammonium vanadate,7803-55-6,N.O[V](=O)=O,N.O=[V](=O)O,-3.419,1.236,-4.01,-9.572000000000001,3.415
"Hydrazine, monohydrate",7803-57-8,O.NN,NN.O,-5.045,0.586,-0.08,-8.312000000000001,5.509
Ammonium hydrogensulphate,7803-63-6,[NH4+].O[S]([O-])(=O)=O,O=S(=O)([O-])O.[NH4+],-0.132,1.054,-4.8580000000000005,-9.253,5.202
Terpineol,8000-41-7,CC(=C)C1CCC(C)(O)CC1.CC2=CCC(CC2)C(C)(C)O,C=C(C)C1CCC(C)(O)CC1.CC1=CCC(C(C)(C)O)CC1,2.035,-2.287,2.715,-4.279,11.755
"Sorbitan, (9Z)-9-octadecenoate (2:3)",8007-43-0,CCCCCCCC\C=C/CCCCCCCC(O)=O.CCCCCCCC\C=C/CCCCCCCC(O)=O.CCCCCCCC\C=C/CCCCCCCC(O)=O.OC[C@H](O)[C@@H](O)[C@H](O)[C@H](O)CO.OC[C@H](O)[C@@H](O)[C@H](O)[C@H](O)CO,CCCCCCCC/C=C\CCCCCCCC(=O)O.CCCCCCCC/C=C\CCCCCCCC(=O)O.CCCCCCCC/C=C\CCCCCCCC(=O)O.OC[C@H](O)[C@@H](O)[C@H](O)[C@H](O)CO.OC[C@H](O)[C@@H](O)[C@H](O)[C@H](O)CO,1.682,-2.335,2.235,-10.277999999999999,4.966
Oleum,8014-95-7,O[S](O)(=O)=O,O=S(=O)(O)O,-0.7859999999999999,2.298,-9.548,-13.652000000000001,2.155
mancozeb,1/7/8018,[Mn++].[Zn++].[S-]C(=S)NCCNC([S-])=S.[S-]C(=S)NCCNC([S-])=S,S=C([S-])NCCNC(=S)[S-].S=C([S-])NCCNC(=S)[S-].[Mn+2].[Zn+2],-0.235,-2.32,2.17,-8.738999999999999,8.11
Rosin,9/7/8050,OC[C@H]1O[C@@H](OC\C=C\c2ccccc2)[C@H](O)[C@@H](O)[C@@H]1O,OC[C@H]1O[C@@H](OC/C=C/c2ccccc2)[C@H](O)[C@@H](O)[C@@H]1O,0.132,-1.348,-0.5329999999999999,-15.135,3.356
Calcium lignosulfonate,8061-52-7,[Ca++].COc1cccc(CC(C[S]([O-])(=O)=O)Oc2ccc(CCC[S]([O-])(=O)=O)cc2OC)c1O,COc1cc(CCCS(=O)(=O)[O-])ccc1OC(Cc1cccc(OC)c1O)CS(=O)(=O)[O-].[Ca+2],2.193,-3.39,1.848,-8.109,10.039
Carboxymethylcellulose,11/7/9000,[Na].CC(O)=O.OCC(O)C(O)C(O)C(O)C=O,CC(=O)O.O=CC(O)C(O)C(O)C(O)CO.[Na],-3.205,0.485,-2.156,-16.718,3.336
Polyvinyl chloride,9002-86-2,ClC=C,C=CCl,3.228,-1.117,1.386,0.138,6.927
Polyvinyl Alcohol,9002-89-5,OC=C,C=CO,-2.633,0.183,0.465,-4.615,7.214
Ethylene oxide / propylene oxide co-polymer,11/6/9003,CC1CO1.C2CO2,C1CO1.CC1CO1,0.016,0.002,-0.303,-5.039,12.428
"1-Propene, 2-methyl-, homopolymer",9003-27-4,CC(C)=C,C=C(C)C,2.227,-1.645,2.546,0.38,14.917
"Butene, polymers",9003-29-6,CCC=C.C\C=C\C,C/C=C/C.C=CCC,2.769,-1.614,2.211,1.902,6.24
"Styrene, polymers",9003-53-6,C=Cc1ccccc1,C=Cc1ccccc1,2.653,-2.867,2.766,-1.632,3.12
"Carboxymethylcelulose, sodium salt",9004-32-4,[Na].CC(O)=O.OCC(O)C(O)C(O)C(O)C=O,CC(=O)O.O=CC(O)C(O)C(O)C(O)CO.[Na],-3.205,0.485,-2.156,-16.718,3.336
"Poly(oxy-1,2-ethandiyl), alfa-sulfo-omega-dodecyloxy-, sodium salt",9004-82-4,[Na+].CCCCCCCCCCCCOCCO[S]([O-])(=O)=O,CCCCCCCCCCCCOCCOS(=O)(=O)[O-].[Na+],4.173,-3.073,5.2360000000000015,-4.315,6.602
"Poly(oxy-1,2-ethanediyl), .alpha.-octadecyl-.omega.-hydroxy-",9005-00-9,CCCCCCCCCCCCCCCCCCOCCO,CCCCCCCCCCCCCCCCCCOCCO,4.4910000000000005,-4.753,7.487999999999999,-2.69,9.11
"Resin acids and Rosin acids, calcium salts",9007-13-0,[Ca++].CC(C)C1=CC2=CC[C@@H]3[C@](C)(CCC[C@@]3(C)C([O-])=O)[C@H]2CC1.CC(C)C4=CC5=CC[C@@H]6[C@](C)(CCC[C@@]6(C)C([O-])=O)[C@H]5CC4,CC(C)C1=CC2=CC[C@H]3[C@](C)(C(=O)[O-])CCC[C@]3(C)[C@H]2CC1.CC(C)C1=CC2=CC[C@H]3[C@](C)(C(=O)[O-])CCC[C@]3(C)[C@H]2CC1.[Ca+2],4.124,-3.8110000000000004,5.122000000000001,-4.354,9.035
"Urea, polymer with formaldehyde",5/6/9011,NC(N)=O.C=O,C=O.NC(N)=O,-0.8809999999999999,0.975,-1.392,-11.23,8.46
"Poly(oxy-1,2-ethanediyl), .alpha.-(nonylphenyl)-.omega.-hydroxy-",9016-45-9,CCCCCCCCCc1ccccc1OCCO,CCCCCCCCCc1ccccc1OCCO,3.925,-4.811,5.806,-3.835,7.707
Maltodextrin,9050-36-6,OC[C@@H](O)[C@@H](O)[C@H](O)[C@@H](O)C=O,O=C[C@H](O)[C@@H](O)[C@H](O)[C@H](O)CO,-2.011,0.46799999999999997,-3.537,-23.087,7.241
"Naphthalenesulfonic acid, polymer with formaldehyde, sodium salt",6/4/9084,[Na+].[Na+].[O-][S](=O)(=O)c1ccc2c(Cc3cccc4cc(ccc34)[S]([O-])(=O)=O)cccc2c1,O=S(=O)([O-])c1ccc2c(Cc3cccc4cc(S(=O)(=O)[O-])ccc34)cccc2c1.[Na+].[Na+],3.559,-4.088,3.705,-8.756,3.906
Barium nitrate,10022-31-8,[Ba++].[O-][N+]([O-])=O.[O-][N+]([O-])=O,O=[N+]([O-])[O-].O=[N+]([O-])[O-].[Ba+2],-1.102,-0.266,0.321,-3.514,13.43
"Nitric acid, cadmium salt, tetrahydrate",10022-68-1,[Cd++].O[N+]([O-])=O.O[N+]([O-])=O,O=[N+]([O-])O.O=[N+]([O-])O.[Cd+2],-3.848,0.429,-0.392,-6.157,0.306
Dinitrogen oxide,10024-97-2,[N-]=[N+]=O,[N-]=[N+]=O,-2.428,0.35200000000000004,1.546,-6.314,-0.103
Disulfur dichloride,10025-67-9,ClSSCl,ClSSCl,4.806,-1.234,2.78,-3.261,7.406
"Silane, trichloro-",10025-78-2,Cl[SiH](Cl)Cl,Cl[SiH](Cl)Cl,3.735,-1.79,1.589,-2.089,9.857
Phosphoryl trichloride,10025-87-3,Cl[P](Cl)(Cl)=O,O=P(Cl)(Cl)Cl,2.6010000000000004,-1.078,1.099,-3.193,10.29
"Silane, tetrachloro-",10026-04-7,Cl[Si](Cl)(Cl)Cl,Cl[Si](Cl)(Cl)Cl,4.082,-2.674,2.452,-0.746,10.997
Phosphorus pentachloride,10026-13-8,Cl[P](Cl)(Cl)(Cl)Cl,ClP(Cl)(Cl)(Cl)Cl,4.268,-3.387,2.699,-0.6559999999999999,9.326
Iron (III) sulfate,10028-22-5,[Fe+3].[Fe+3].[O-][S]([O-])(=O)=O.[O-][S]([O-])(=O)=O.[O-][S]([O-])(=O)=O,O=S(=O)([O-])[O-].O=S(=O)([O-])[O-].O=S(=O)([O-])[O-].[Fe+3].[Fe+3],0.206,0.3670000000000001,-0.116,-6.814,16.018
Calcium sulfurate,10034-76-1,[Ca++].[O-][S]([O-])(=O)=O,O=S(=O)([O-])[O-].[Ca+2],0.281,0.218,0.084,-6.92,12.445
Calcium chloride,10035-04-8,[Cl-].[Cl-].[Ca++],[Ca+2].[Cl-].[Cl-],2.757,-1.984,3.3110000000000004,-3.353,7.169
Hydrobromic acid,10035-10-6,Br,Br,3.48,-1.255,2.174,-2.653,35.097
"Hydroxylamine, sulfate(2:1)",10039-54-0,NO.NO.O[S](O)(=O)=O,NO.NO.O=S(=O)(O)O,-2.931,1.891,-6.791,-11.835999999999999,7.288
"1-Heptanol, 2-propyl-",10042-59-8,CCCCCC(CO)CCC,CCCCCC(CO)CCC,3.866,-2.9789999999999996,3.847,-2.537,5.996
strontium nitrate,10042-76-9,[Sr++].[O-][N+]([O-])=O.[O-][N+]([O-])=O,O=[N+]([O-])[O-].O=[N+]([O-])[O-].[Sr+2],-1.118,-0.249,0.228,-3.48,12.867
Aluminium sulfate,10043-01-3,[Al+3].[Al+3].[O-][S]([O-])(=O)=O.[O-][S]([O-])(=O)=O.[O-][S]([O-])(=O)=O,O=S(=O)([O-])[O-].O=S(=O)([O-])[O-].O=S(=O)([O-])[O-].[Al+3].[Al+3],0.141,0.355,-0.145,-6.917999999999999,14.135
Boric acid,10043-35-3,OB(O)O,OB(O)O,-1.5659999999999998,2.4,-1.039,-14.509,9.98
Calcium chloride,10043-52-4,[Cl-].[Cl-].[Ca++],[Ca+2].[Cl-].[Cl-],2.757,-1.984,3.3110000000000004,-3.353,7.169
Uranium tetrafluoride,10049-14-6,[F-].[F-].[F-].[F-].[U+4],[F-].[F-].[F-].[F-].[U+4],1.117,-1.858,2.63,-2.199,6.174
"Benzenamine, 4-(1-methyl-1-phenylethyl)-N-[4-(1-methyl-1-phenylethyl)phenyl",10081-67-1,CC(C)(c1ccccc1)c2ccc(Nc3ccc(cc3)C(C)(C)c4ccccc4)cc2,CC(C)(c1ccccc1)c1ccc(Nc2ccc(C(C)(C)c3ccccc3)cc2)cc1,4.681,-5.5729999999999995,7.289,-5.584,3.521
"13-Docosenamide, N-octadecyl-, (13Z)-",10094-45-8,CCCCCCCCCCCCCCCCCCNC(=O)CCCCCCCCCCC\C=C/CCCCCCCC,CCCCCCCC/C=C\CCCCCCCCCCCC(=O)NCCCCCCCCCCCCCCCCCC,5.126,-5.846,9.852,-2.248,7.42
Calcium silicate,10101-39-0,[Ca++].[Ca++].[O-][Si]([O-])([O-])[O-],[Ca+2].[Ca+2].[O-][Si]([O-])([O-])[O-],0.7959999999999999,-0.9259999999999999,1.261,-6.792000000000001,13.833
"Calcium sulfate, dihydrate",10101-41-4,O.O.[Ca++].[O-][S]([O-])(=O)=O,O.O.O=S(=O)([O-])[O-].[Ca+2],0.242,0.025,0.43,-6.779,12.946
Zirconium orthosilicate,10101-52-7,[Zr+4].[O-][Si]([O-])([O-])[O-],[O-][Si]([O-])([O-])[O-].[Zr+4],0.647,-0.736,0.961,-6.875,17.966
Trisodium phosphate dodecahydrate,10101-89-0,O.O.O.O.O.O.O.O.O.O.O.O.[Na+].[Na+].[Na+].[O-][P]([O-])([O-])=O,O.O.O.O.O.O.O.O.O.O.O.O.O=P([O-])([O-])[O-].[Na+].[Na+].[Na+],0.482,-0.574,1.118,-6.068,6.113
"Sulfuric acid, nickel(2+) salt (1:1), hexahydrate",10101-97-0,O.O.O.O.O.O.[Ni++].[O-][S]([O-])(=O)=O,O.O.O.O.O.O.O=S(=O)([O-])[O-].[Ni+2],0.194,-0.141,0.682,-6.405,15.82
"Thiosulfuric acid (H2S2O3), disodium salt, pentahydrate",10102-17-7,O.O.O.O.O.[Na+].[Na+].[O-][S]([S-])(=O)=O,O.O.O.O.O.O=S(=O)([O-])[S-].[Na+].[Na+],0.2,-0.536,1.551,-5.961,5.766
Nitrogen monoxide,10102-43-9,[N]=O,[N]=O,-1.137,0.609,-1.382,-6.622000000000001,-1.038
Calcium phosphate,10103-46-5,[Ca++].[Ca++].[Ca++].[O-][P]([O-])([O-])=O.[O-][P]([O-])([O-])=O,O=P([O-])([O-])[O-].O=P([O-])([O-])[O-].[Ca+2].[Ca+2].[Ca+2],1.681,-0.439,0.938,-7.2410000000000005,11.586
Cerium trinitrate,10108-73-3,[Ce+3].[O-][N+]([O-])=O.[O-][N+]([O-])=O.[O-][N+]([O-])=O,O=[N+]([O-])[O-].O=[N+]([O-])[O-].O=[N+]([O-])[O-].[Ce+3],-1.182,-0.17600000000000002,0.18600000000000005,-3.364,14.187
Dipotassium sulfite,10117-38-1,[K+].[K+].[O-][S]([O-])=O,O=S([O-])[O-].[K+].[K+],0.405,-0.585,0.71,-7.075,7.648
Triammonium phosphate,10124-31-9,[NH4+].[NH4+].[NH4+].[O-][P]([O-])([O-])=O,O=P([O-])([O-])[O-].[NH4+].[NH4+].[NH4+],-0.012,-0.34700000000000003,0.132,-5.8839999999999995,13.799
Calcium nitrate,10124-37-5,[Ca++].[O-][N+]([O-])=O.[O-][N+]([O-])=O,O=[N+]([O-])[O-].O=[N+]([O-])[O-].[Ca+2],-1.096,-0.24600000000000002,0.281,-3.4610000000000003,12.737
Cobalt (II) sulfate,10124-43-3,[Co++].[O-][S]([O-])(=O)=O,O=S(=O)([O-])[O-].[Co+2],0.276,0.19399999999999998,0.039,-6.834,15.29
Sodium hexametaphosphate,10124-56-8,[Na+].[Na+].[Na+].[Na+].[Na+].[Na+].[O-][P]1(=O)O[P]([O-])(=O)O[P]([O-])(=O)O[P]([O-])(=O)O[P]([O-])(=O)O[P]([O-])(=O)O1,O=P1([O-])OP(=O)([O-])OP(=O)([O-])OP(=O)([O-])OP(=O)([O-])OP(=O)([O-])O1.[Na+].[Na+].[Na+].[Na+].[Na+].[Na+],2.232,-0.126,-0.145,-9.88,1.815
Potassium laurate,10124-65-9,[K+].CCCCCCCCCCCC([O-])=O,CCCCCCCCCCCC(=O)[O-].[K+],4.441,-3.875,5.862,-2.2640000000000002,7.757
Disodium fluorophosphate,10163-15-2,[Na+].[Na+].[O-][P]([O-])(F)=O,O=P([O-])([O-])F.[Na+].[Na+],1.526,-0.705,0.805,-5.291,0.94
"3,4-Dihydro-2,5,7,8-tetramethyl-2-(4,8,12-trimethyltridecyl)-2H-benzopyran-6-ol",10191-41-0,CC(C)CCCC(C)CCCC(C)CCCC1(C)CCc2c(C)c(O)c(C)c(C)c2O1,Cc1c(C)c2c(c(C)c1O)CCC(C)(CCCC(C)CCCC(C)CCCC(C)C)O2,4.9430000000000005,-5.581,9.003,-1.9669999999999999,9.78
Ammonium bisulfite,10192-30-0,[NH4+].O[S]([O-])=O,O=S([O-])O.[NH4+],-0.495,0.606,-3.164,-9.222999999999999,3.817
1-Tetracosene,10192-32-2,CCCCCCCCCCCCCCCCCCCCCCC=C,C=CCCCCCCCCCCCCCCCCCCCCCC,5.5139999999999985,-6.065,10.531,0.272,7.431
ammonium sulphite,10196-04-0,[NH4+].[NH4+].[O-][S]([O-])=O,O=S([O-])[O-].[NH4+].[NH4+],-0.6,-0.248,0.121,-6.319,13.04
"Ethanol, 2,2'-(octadecylimino)bis-",10213-78-2,CCCCCCCCCCCCCCCCCCN(CCO)CCO,CCCCCCCCCCCCCCCCCCN(CCO)CCO,3.2,-4.512,6.487,-4.782,6.782
"Disodium silicate, pentahydrate",10213-79-3,O.O.O.O.O.[Na+].[Na+].O[Si](O)([O-])[O-],O.O.O.O.O.[Na+].[Na+].[O-][Si]([O-])(O)O,0.363,0.059000000000000004,0.024,-8.437999999999999,6.69
"Dodecanoic acid, 1-methylethyl ester",10233-13-3,CCCCCCCCCCCC(=O)OC(C)C,CCCCCCCCCCCC(=O)OC(C)C,5.546,-4.3919999999999995,6.586,-1.714,8.812
Gibenclamide,10238-21-8,COc1ccc(Cl)cc1C(=O)NCCc2ccc(cc2)[S](=O)(=O)NC(=O)NC3CCCCC3,COc1ccc(Cl)cc1C(=O)NCCc1ccc(S(=O)(=O)NC(=O)NC2CCCCC2)cc1,1.7719999999999998,-3.847,3.714,-11.057,6.496
"Carbamodithioic acid, dibutyl-, methylene ester",10254-57-6,CCCCN(CCCC)C(=S)SCSC(=S)N(CCCC)CCCC,CCCCN(CCCC)C(=S)SCSC(=S)N(CCCC)CCCC,5.0280000000000005,-5.3820000000000014,6.428,-4.917,8.826
Methamidophos,10265-92-6,CO[P](N)(=O)SC,COP(N)(=O)SC,-0.728,-0.299,-0.7759999999999999,-11.168,7.804
Cadmium nitrate,10325-94-7,[Cd++].[O-][N+]([O-])=O.[O-][N+]([O-])=O,O=[N+]([O-])[O-].O=[N+]([O-])[O-].[Cd+2],-1.077,-0.252,0.311,-3.45,13.045
"Barium chloride (BaCl2), dihydrate",10326-27-9,O.O.[Cl-].[Cl-].[Ba++],O.O.[Ba+2].[Cl-].[Cl-],1.848,-1.425,2.436,-4.252,9.714
Ditetradecyl fumarate,10341-03-4,CCCCCCCCCCCCCCOC(=O)/C=C/C(=O)OCCCCCCCCCCCCCC,CCCCCCCCCCCCCCOC(=O)/C=C/C(=O)OCCCCCCCCCCCCCC,5.359,-5.567,9.514,-2.825,6.779
Magnesium nitrate,10377-60-3,[Mg++].[O-][N+]([O-])=O.[O-][N+]([O-])=O,O=[N+]([O-])[O-].O=[N+]([O-])[O-].[Mg+2],-1.139,-0.257,0.264,-3.495,12.419
Dimethyl acetylsuccinate,10420-33-4,COC(=O)CC(C(C)=O)C(=O)OC,COC(=O)CC(C(C)=O)C(=O)OC,-0.7879999999999999,-1.3780000000000001,-0.208,-7.644,9.804
Iron trinitrate,10421-48-4,[Fe+3].[O-][N+]([O-])=O.[O-][N+]([O-])=O.[O-][N+]([O-])=O,O=[N+]([O-])[O-].O=[N+]([O-])[O-].O=[N+]([O-])[O-].[Fe+3],-1.2,-0.16699999999999998,0.152,-3.262,15.494
"Propene, 1,1,2,3-tetrachloro-",10436-39-2,ClCC(Cl)=C(Cl)Cl,ClCC(Cl)=C(Cl)Cl,4.58,-3.052,3.173,-1.078,7.667
"Aluminum, trihexacosyl-",10449-71-5,CCCCCCCCCCCCCCCCCCCCCCCCCC[Al](CCCCCCCCCCCCCCCCCCCCCCCCCC)CCCCCCCCCCCCCCCCCCCCCCCCCC,CCCCCCCCCCCCCCCCCCCCCCCCCC[Al](CCCCCCCCCCCCCCCCCCCCCCCCCC)CCCCCCCCCCCCCCCCCCCCCCCCCC,5.715,-6.752999999999999,12.462,-0.272,8.001
"Acetamide, 1,2-ethanediylbis-N-acetyl-",10543-57-4,CC(=O)N(CCN(C(C)=O)C(C)=O)C(C)=O,CC(=O)N(CCN(C(C)=O)C(C)=O)C(C)=O,-1.393,-1.176,-0.904,-11.98,5.32
Dinitrogen tetraoxide,10544-72-6,[O-][N+](=O)[N+]([O-])=O,O=[N+]([O-])[N+](=O)[O-],-1.375,-0.154,0.112,-6.268,14.29
Sulfur dichloride,10545-99-0,ClSCl,ClSCl,3.766,-0.885,2.187,-2.7680000000000002,2.976