chemical_name,cas,smiles,canonical_smiles,log_p,log_s,kow,water-energy,pka
"Acetyl chloride, chloro-",79-04-9,ClCC(Cl)=O,O=C(Cl)CCl,0.8290000000000001,-0.282,0.8140000000000001,-4.857,5.063
2-Propenamide,79-06-1,NC(=O)C=C,C=CC(N)=O,-0.419,0.182,-0.89,-11.037,7.978
2-Chloroacetamide,79-07-2,NC(=O)CCl,NC(=O)CCl,-0.32,0.304,-0.648,-11.017000000000001,10.479
Propionic acid,79-09-4,CCC(O)=O,CCC(=O)O,-3.906,0.156,0.211,-7.466,5.695
Acrylic acid,79-10-7,OC(=O)C=C,C=CC(=O)O,-4.0310000000000015,0.053,0.444,-9.329,4.365
Chloroacetic acid,79-11-8,OC(=O)CCl,O=C(O)CCl,-3.959,0.331,0.052000000000000005,-9.2,2.879
Glycollic acid,79-14-1,OCC(O)=O,O=C(O)CO,-5.497000000000001,1.149,-1.301,-13.177999999999999,3.333
Methyl acetate,79-20-9,COC(C)=O,COC(C)=O,-1.196,-0.012,-0.094,-3.4819999999999998,9.744
Peroxyacetic acid,79-21-0,CC(=O)OO,CC(=O)OO,-1.868,0.613,-0.67,-9.086,8.954
"Formic acid, chloro-, methyl ester",79-22-1,COC(Cl)=O,COC(=O)Cl,-0.124,-0.24100000000000002,0.917,-2.968,1.845
"Ethane, nitro-",79-24-3,CC[N+]([O-])=O,CC[N+](=O)[O-],-1.0490000000000002,-0.355,0.119,-3.417,6.205
"Propanoic acid, 2-methyl-",79-31-2,CC(C)C(O)=O,CC(C)C(=O)O,-2.685,-0.41600000000000004,0.931,-7.67,5.253
"Propanoic acid, 2-hydroxy-, (S)-",79-33-4,C[C@H](O)C(O)=O,C[C@H](O)C(=O)O,-4.649,0.563,-0.799,-14.08,3.128
"Pentaerythritol, tetranitrate",78-11-5,OCC(CO)(CO)CO.O[N+]([O-])=O.O[N+]([O-])=O.O[N+]([O-])=O.O[N+]([O-])=O,O=[N+]([O-])O.O=[N+]([O-])O.O=[N+]([O-])O.O=[N+]([O-])O.OCC(CO)(CO)CO,-3.148,0.498,-1.352,-10.407,2.809
"Phosphoric acid, triethyl ester",78-40-0,CCO[P](=O)(OCC)OCC,CCOP(=O)(OCC)OCC,4.37,-1.1340000000000001,0.597,-7.52,9.746
"Phosphoric acid, tris(2-ethylhexyl) ester",78-42-2,CCCCC(CC)CO[P](=O)(OCC(CC)CCCC)OCC(CC)CCCC,CCCCC(CC)COP(=O)(OCC(CC)CCCC)OCC(CC)CCCC,5.73,-4.375,7.028,-3.557,5.156
"Ethanol, 2-butoxy-, phosphate (3:1)",78-51-3,CCCCOCCO.CCCCOCCO.CCCCOCCO.O[P](O)(O)=O,CCCCOCCO.CCCCOCCO.CCCCOCCO.O=P(O)(O)O,0.481,-0.115,-0.738,-8.476,6.625
Methacrylic acid,79-41-4,CC(=C)C(O)=O,C=C(C)C(=O)O,-1.791,-0.544,0.909,-8.789,4.552
"Propane, 2-nitro-",79-46-9,CC(C)[N+]([O-])=O,CC(C)[N+](=O)[O-],-1.173,-0.8270000000000001,0.757,-3.358,8.111
DL-Pantoyl lactone,79-50-5,CC1(C)COC(=O)C1O,CC1(C)COC(=O)C1O,0.547,-0.732,-0.828,-9.606,5.313
"3-Buten-2-one, 4-(2,6,6-trimethyl-1-cyclohexen-1-yl)-",79-77-6,CC(=O)C=CC1=C(C)CCCC1(C)C,CC(=O)C=CC1=C(C)CCCC1(C)C,3.68,-3.3089999999999997,3.83,-3.804,8.732
Camphene,79-92-5,CC1(C)C2CCC(C2)C1=C,C=C1C2CCC(C2)C1(C)C,5.247999999999998,-4.559,5.198,-0.008,3.655
"2,2',6,6'-Tetrabromo-4,4'-isopropylidenediphenol",79-94-7,CC(C)(c1cc(Br)c(O)c(Br)c1)c2cc(Br)c(O)c(Br)c2,CC(C)(c1cc(Br)c(O)c(Br)c1)c1cc(Br)c(O)c(Br)c1,4.561,-6.187,6.249,-7.417999999999999,6.897
"Phenol, 4,4'-(1-methylethylidene)bis[2-(1,1-dimethylethyl)-",79-96-9,CC(C)(C)c1cc(ccc1O)C(C)(C)c2ccc(O)c(c2)C(C)(C)C,CC(C)(C)c1cc(C(C)(C)c2ccc(O)c(C(C)(C)C)c2)ccc1O,5.176,-5.242000000000001,5.2429999999999986,-5.686,10.266
Bisphenol A,80-05-7,CC(C)(c1ccc(O)cc1)c2ccc(O)cc2,CC(C)(c1ccc(O)cc1)c1ccc(O)cc1,3.805,-4.098,3.3310000000000004,-8.157,9.51
"Sulfone, bis(p-chlorophenyl)",80-07-9,Clc1ccc(cc1)[S](=O)(=O)c2ccc(Cl)cc2,O=S(=O)(c1ccc(Cl)cc1)c1ccc(Cl)cc1,4.101,-4.038,3.99,-8.574,4.885
"Phenol, 4,4'-sulfonylbis-",80-09-1,Oc1ccc(cc1)[S](=O)(=O)c2ccc(O)cc2,O=S(=O)(c1ccc(O)cc1)c1ccc(O)cc1,2.359,-2.7769999999999997,2.052,-12.828,7.956
"Silane, dichlorodiphenyl-",80-10-4,Cl[Si](Cl)(c1ccccc1)c2ccccc2,Cl[Si](Cl)(c1ccccc1)c1ccccc1,3.871,-5.055,4.393,-3.0810000000000004,5.62
"Hydroperoxide, 1-methyl-1-phenylethyl-",80-15-9,CC(C)(OO)c1ccccc1,CC(C)(OO)c1ccccc1,2.346,-2.394,2.426,-7.042999999999999,12.829
Terpinyl acetate,80-26-2,CC(O)=O.CC1(C)C2CCC(C)(C1C2)C3(C)CCC4CC3(C4(C)C)C5(C)CCC6CC5C6(C)C,CC(=O)O.CC1(C)C2CCC(C)(C3(C)CCC4CC3(C3(C)CCC5CC3C5(C)C)C4(C)C)C1C2,3.265,-4.916,3.692,-1.911,5.852
"Peroxide, bis(1-methyl-1-phenylethyl)-",80-43-3,CC(C)(OOC(C)(C)c1ccccc1)c2ccccc2,CC(C)(OOC(C)(C)c1ccccc1)c1ccccc1,4.482,-4.115,5.931,-5.1770000000000005,5.961
"Phenol, p-tert-pentyl-",80-46-6,CCC(C)(C)c1ccc(O)cc1,CCC(C)(C)c1ccc(O)cc1,4.051,-3.951,3.953,-4.573,9.382
"Benzenesulfonic acid, 4,4'-oxybis-, dihydrazide",80-51-3,NN[S](=O)(=O)c1ccc(Oc2ccc(cc2)[S](=O)(=O)NN)cc1,NNS(=O)(=O)c1ccc(Oc2ccc(S(=O)(=O)NN)cc2)cc1,-0.038,-2.8089999999999997,-0.343,-15.724,5.764
"Propionaldehyde, 2-(4-tert-Butylbenzyl)-",80-54-6,CC(Cc1ccc(cc1)C(C)(C)C)C=O,CC(C=O)Cc1ccc(C(C)(C)C)cc1,4.651,-4.033,4.564,-3.478,8.085
2-Pinene,80-56-8,CC1=CCC2CC1C2(C)C,CC1=CCC2CC1C2(C)C,4.91,-4.397,4.716,-0.467,8.142
"Methacrylate, methyl-",80-62-6,COC(=O)C(C)=C,C=C(C)C(=O)OC,1.456,-1.248,1.445,-4.886,5.312
"Naphthalene-1,5-disulphonic acid",81-04-9,O[S](=O)(=O)c1cccc2c1cccc2[S](O)(=O)=O,O=S(=O)(O)c1cccc2c(S(=O)(=O)O)cccc12,0.6,-1.912,-3.55,-12.842,-6.095
"4,4'-Diaminostilbene-2,2'-disulfonic acid",81-11-8,Nc1ccc(C=Cc2ccc(N)cc2[S](O)(=O)=O)c(c1)[S](O)(=O)=O,Nc1ccc(C=Cc2ccc(N)cc2S(=O)(=O)O)c(S(=O)(=O)O)c1,0.067,-2.0380000000000003,-2.545,-13.697000000000001,-0.6
Dexpanthenol,81-13-0,CC(C)(CO)[C@@H](O)C(=O)NCCCO,CC(C)(CO)[C@@H](O)C(=O)NCCCO,-0.107,-0.88,-0.984,-14.185,10.806
"4-tert-Butyl-2,6-dimethyl-3,5-dinitroacetophenone  (Musk ketone)",81-14-1,CC(=O)c1c(C)c(c(c(c1C)[N+]([O-])=O)C(C)(C)C)[N+]([O-])=O,CC(=O)c1c(C)c([N+](=O)[O-])c(C(C)(C)C)c([N+](=O)[O-])c1C,2.259,-4.43,4.291,-4.901,4.499
"5-tert-Butyl-2,4,6-trinitro-m-xylene  (Musk xylene)",81-15-2,Cc1c(c(C)c(c(c1[N+]([O-])=O)C(C)(C)C)[N+]([O-])=O)[N+]([O-])=O,Cc1c([N+](=O)[O-])c(C)c([N+](=O)[O-])c(C(C)(C)C)c1[N+](=O)[O-],1.94,-4.325,3.5780000000000003,-4.3919999999999995,1.724
"1-Naphthalenesulfonic acid, 2-amino-",81-16-3,Nc1ccc2ccccc2c1[S](O)(=O)=O,Nc1ccc2ccccc2c1S(=O)(=O)O,0.872,-2.31,-1.143,-11.547,-2.127
"Anthraquinone, 1,4-dihydroxy-",81-64-1,Oc1ccc(O)c2C(=O)c3ccccc3C(=O)c12,O=C1c2ccccc2C(=O)c2c(O)ccc(O)c21,2.356,-3.636,3.959,-11.365,5.761
"6,15-Dihydroanthrazine-5,9,14,18-tetrone",81-77-6,O=C1c2ccccc2C(=O)c3c4Nc5ccc6C(=O)c7ccccc7C(=O)c6c5Nc4ccc13,O=c1c2ccccc2c(=O)c2c1ccc1[nH]c3c(ccc4c(=O)c5ccccc5c(=O)c43)[nH]c12,2.789,-4.44,4.1080000000000005,-12.652000000000001,7.742
Naphthalic anhydride,81-84-5,O=C(OC(=O)c1cccc2ccccc12)c3cccc4ccccc34,O=C(OC(=O)c1cccc2ccccc12)c1cccc2ccccc12,4.034,-5.146,4.976,-6.355,2.275
"Anthraquinone, 1-amino-",82-45-1,Nc1cccc2C(=O)c3ccccc3C(=O)c12,Nc1cccc2c1C(=O)c1ccccc1C2=O,1.91,-3.6239999999999997,3.2710000000000004,-10.158,8.205
"Acenaphthylene, 1,2-dihydro-",83-32-9,C1Cc2cccc3cccc1c23,c1cc2c3c(cccc3c1)CC2,3.982,-4.593,4.63,-4.696000000000001,4.985
"Benzene, 1,2-dimethyl-3-nitro-",83-41-0,Cc1cccc(c1C)[N+]([O-])=O,Cc1cccc([N+](=O)[O-])c1C,3.562,-2.824,2.837,-3.778,3.53
"1,5-Naphthalenediol",83-56-7,Oc1cccc2c(O)cccc12,Oc1cccc2c(O)cccc12,2.095,-3.015,2.718,-9.832,7.62
"Ethane, 1,1,2,2-tetrachloro-",79-34-5,ClC(Cl)C(Cl)Cl,ClC(Cl)C(Cl)Cl,4.445,-2.8680000000000003,2.439,-2.204,11.228
"Acetyl chloride, dichloro-",79-36-7,ClC(Cl)C(Cl)=O,O=C(Cl)C(Cl)Cl,1.6130000000000002,-1.068,1.4580000000000002,-4.583,4.915
"Ethene, chlorotrifluoro-",79-38-9,FC(F)=C(F)Cl,FC(F)=C(F)Cl,3.201,-1.7930000000000001,1.51,1.7169999999999999,3.882
"2-Propenamide, 2-methyl-",79-39-0,CC(=C)C(N)=O,C=C(C)C(N)=O,-0.348,-0.33899999999999997,-0.537,-10.65,8.34
"9,10-Anthracenedione",84-65-1,O=C1c2ccccc2C(=O)c3ccccc13,O=C1c2ccccc2C(=O)c2ccccc21,2.807,-3.93,3.483,-8.243,8.867
Diethyl phthalate,84-66-2,CCOC(=O)c1ccccc1C(=O)OCC,CCOC(=O)c1ccccc1C(=O)OCC,3.394,-4.137,2.883,-6.002999999999999,5.245
Di-iso-Butyl phthalate,84-69-5,CC(C)COC(=O)c1ccccc1C(=O)OCC(C)C,CC(C)COC(=O)c1ccccc1C(=O)OCC(C)C,4.94,-4.868,4.4289999999999985,-4.933,6.354
Dibutyl phthalate,84-74-2,CCCCOC(=O)c1ccccc1C(=O)OCCCC,CCCCOC(=O)c1ccccc1C(=O)OCCCC,4.675,-5.053,4.728,-5.224,6.284
"1,2-Benzenedicarboxylic acid, dihexyl ester",84-75-3,CCCCCCOC(=O)c1ccccc1C(=O)OCCCCCC,CCCCCCOC(=O)c1ccccc1C(=O)OCCCCCC,4.959,-5.511,6.6560000000000015,-4.448,6.1
Didecyl phthalate,84-77-5,CCCCCCCCCCOC(=O)c1ccccc1C(=O)OCCCCCCCCCC,CCCCCCCCCCOC(=O)c1ccccc1C(=O)OCCCCCCCCCC,5.261,-6.109,8.738999999999999,-3.455,6.344
"Phthalimide, 1,2,3,6-tetrahydro-",85-40-5,O=C1NC(=O)C2CC=CCC12,O=C1NC(=O)C2CC=CCC12,0.201,-1.005,0.338,-10.269,7.997
Phthalimide,85-41-6,O=C1NC(=O)c2ccccc12,O=C1NC(=O)c2ccccc21,0.994,-2.0540000000000003,1.056,-11.745999999999999,11.806
"1,3-Isobenzofurandione, hexahydro-",85-42-7,O=C1OC(=O)C2CCCCC12,O=C1OC(=O)C2CCCCC12,1.951,-2.025,0.769,-5.946000000000001,4.456
"3a,4,7,7a-Tetrahydro-1,3-isobenzofurandione",85-43-8,O=C1OC(=O)C2CC=CCC12,O=C1OC(=O)C2CC=CCC12,0.888,-1.5430000000000001,0.835,-6.193,3.887
"1,3-Isobenzofurandione",85-44-9,O=C1OC(=O)c2ccccc12,O=C1OC(=O)c2ccccc21,2.123,-2.761,1.269,-7.236000000000001,4.709
"Benzoic acid, 2-(4-chlorobenzoyl)-",85-56-3,OC(=O)c1ccccc1C(=O)c2ccc(Cl)cc2,O=C(O)c1ccccc1C(=O)c1ccc(Cl)cc1,0.363,-4.3469999999999995,3.4610000000000003,-8.725,3.857
Butyl benzyl phthalate,85-68-7,CCCCOC(=O)c1ccccc1C(=O)OCc2ccccc2,CCCCOC(=O)c1ccccc1C(=O)OCc1ccccc1,4.22,-4.917,4.659,-5.605,4.541
"Azinpho, methyl-",86-50-0,CO[P](=S)(OC)SCN1N=Nc2ccccc2C1=O,COP(=S)(OC)SCn1nnc2ccccc2c1=O,1.539,-3.352,2.173,-10.677,0.355
"Naphthalene, 1-nitro-",86-57-7,[O-][N+](=O)c1cccc2ccccc12,O=[N+]([O-])c1cccc2ccccc12,3.508,-3.5069999999999997,2.902,-5.071000000000001,2.122
Carbazole,86-74-8,[nH]1c2ccccc2c3ccccc13,c1ccc2c(c1)[nH]c1ccccc12,3.374,-4.115,4.1,-7.912000000000001,6.239
Mucochloric acid,87-56-9,OC(=O)\C(Cl)=C(\Cl)C=O,O=C/C(Cl)=C(/Cl)C(=O)O,-1.828,-1.3880000000000001,1.354,-9.657,2.548
"Benzene, 1,2,3-trichloro-",87-61-6,Clc1cccc(Cl)c1Cl,Clc1cccc(Cl)c1Cl,4.603,-4.25,3.929,-1.757,6.718
"Aniline, 2,6-dimethyl-",87-62-7,Cc1cccc(C)c1N,Cc1cccc(C)c1N,0.7829999999999999,-2.215,1.81,-5.4639999999999995,4.437
"1,3,5-Triazine-2,4,6(1H,3H,5H)-trione, 1,3,5-trichloro-",87-90-1,ClN1C(=O)N(Cl)C(=O)N(Cl)C1=O,O=c1n(Cl)c(=O)n(Cl)c(=O)n1Cl,-1.192,-1.079,0.3720000000000001,-17.430999999999997,3.604
Xylitol,87-99-0,OC[C@@H](O)[C@H](O)[C@@H](O)CO,OC[C@H](O)[C@@H](O)[C@H](O)CO,-2.108,0.669,-3.141,-21.456,4.735
"Phenol, 2,4,6-trichloro-",88-06-2,Oc1c(Cl)cc(Cl)cc1Cl,Oc1c(Cl)cc(Cl)cc1Cl,3.619,-3.86,3.663,-5.532,6.1
"Butanoic acid, 2-ethyl",88-09-5,CCC(CC)C(O)=O,CCC(CC)C(=O)O,-0.334,-1.453,1.5730000000000002,-5.667000000000001,5.215
N-Vinyl-pyrrolidinone,88-12-0,C=CN1CCCC1=O,C=CN1CCCC1=O,-0.07,-1.082,-0.42,-9.136000000000001,8.042
"Phenol, 2-(1,1-dimethylethyl)-",88-18-6,CC(C)(C)c1ccccc1O,CC(C)(C)c1ccccc1O,4.2330000000000005,-3.323,3.175,-4.525,11.446
o-Toluenesulfonamide,88-19-7,Cc1ccccc1[S](N)(=O)=O,Cc1ccccc1S(N)(=O)=O,0.5329999999999999,-1.5430000000000001,0.63,-10.927,8.924
"Cyclohexanol, 2-(1,1-dimethylethyl)-, acetate",88-41-5,CC(O)=O.CC(C)(C)C1CCCCC1O,CC(=O)O.CC(C)(C)C1CCCCC1O,-0.708,-1.578,1.036,-4.933,5.436
"m-Toluenesulfonic acid, 6-amino-",88-44-8,Cc1cc(ccc1N)[S](O)(=O)=O,Cc1cc(S(=O)(=O)O)ccc1N,-0.099,-1.1159999999999999,-2.567,-12.724,-0.791
"m-Toluenesulfonate, 6-amino-4-chloro",88-51-7,Cc1cc(c(N)cc1Cl)[S](O)(=O)=O,Cc1cc(S(=O)(=O)O)c(N)cc1Cl,1.034,-1.7269999999999999,-1.515,-11.82,-2.689
5-Amino-2-chlorotoluene-4-sulphonic acid,88-53-9,Cc1cc(N)c(cc1Cl)[S](O)(=O)=O,Cc1cc(N)c(S(=O)(=O)O)cc1Cl,0.932,-1.72,-1.419,-11.812000000000001,-2.969
"m-Cresol, 6-tert-butyl-",88-60-8,Cc1ccc(c(O)c1)C(C)(C)C,Cc1ccc(C(C)(C)C)c(O)c1,4.623,-3.7039999999999997,3.692,-4.612,11.644
"Benzene, 1-chloro-2-(dichloromethyl)",88-66-4,ClC(Cl)c1ccccc1Cl,Clc1ccccc1C(Cl)Cl,4.375,-4.231,3.514,-2.29,8.749
"1-Amino-9,10-dihydro-9,10-dioxoanthracene-2-sulphonic acid",83-62-5,Nc1c(ccc2C(=O)c3ccccc3C(=O)c12)[S](O)(=O)=O,Nc1c(S(=O)(=O)O)ccc2c1C(=O)c1ccccc1C2=O,0.7909999999999999,-2.945,0.051,-12.665,1.57
Theobromine,83-67-0,Cn1cnc2N(C)C(=O)NC(=O)c12,Cn1cnc2c1c(=O)[nH]c(=O)n2C,-0.784,-1.0170000000000001,-0.6859999999999999,-16.18,7.17
"Anthraquinone, 2-ethyl-",84-51-5,CCc1ccc2C(=O)c3ccccc3C(=O)c2c1,CCc1ccc2c(c1)C(=O)c1ccccc1C2=O,3.4210000000000003,-4.302,4.423,-7.8660000000000005,8.47
Dicyclohexyl phthalate,84-61-7,O=C(OC1CCCCC1)c2ccccc2C(=O)OC3CCCCC3,O=C(OC1CCCCC1)c1ccccc1C(=O)OC1CCCCC1,4.916,-5.207999999999998,5.837999999999999,-4.936,6.301
"Phenol, 2-sec-butyl-4,6-dinitro-",88-85-7,CCC(C)c1cc(cc(c1O)[N+]([O-])=O)[N+]([O-])=O,CCC(C)c1cc([N+](=O)[O-])cc([N+](=O)[O-])c1O,2.325,-3.702,3.337,-6.487,3.794
"Phenol, 2,4,6-trinitro-",88-89-1,Oc1c(cc(cc1[N+]([O-])=O)[N+]([O-])=O)[N+]([O-])=O,O=[N+]([O-])c1cc([N+](=O)[O-])c(O)c([N+](=O)[O-])c1,-0.273,-2.608,1.389,-8.197000000000001,2.02
"2,3-Pyridinedicarboxylic acid",89-00-9,OC(=O)c1cccnc1C(O)=O,O=C(O)c1cccnc1C(=O)O,-2.8480000000000003,-1.507,0.158,-12.360999999999999,3.253
"1,2,4-Benzenetricarboxylic acid, trioctyl ester",89-04-3,CCCCCCCCOC(=O)c1ccc(C(=O)OCCCCCCCC)c(c1)C(=O)OCCCCCCCC,CCCCCCCCOC(=O)c1ccc(C(=O)OCCCCCCCC)c(C(=O)OCCCCCCCC)c1,5.336,-6.12,8.845,-4.226,4.922
4-Sulfophthalic acid,89-08-7,OC(=O)c1ccc(cc1C(O)=O)[S](O)(=O)=O,O=C(O)c1ccc(S(=O)(=O)O)cc1C(=O)O,-2.016,-1.506,-1.824,-14.179,2.03
"5-Pyrazolone, 3-methyl-1-phenyl-",89-25-8,CC1=CC(=O)N(N1)c2ccccc2,Cc1cc(=O)n(-c2ccccc2)[nH]1,-0.32,-2.529,1.433,-12.520999999999999,2.142
"Pyromellitic 1,2:4,5-dianhydride",89-32-7,O=C1OC(=O)c2cc3C(=O)OC(=O)c3cc12,O=c1oc(=O)c2cc3c(=O)oc(=O)c3cc12,0.244,-3.2769999999999997,0.852,-13.502,1.469
"Benzene, 1,4-dichloro-2-nitro-",89-61-2,[O-][N+](=O)c1cc(Cl)ccc1Cl,O=[N+]([O-])c1cc(Cl)ccc1Cl,3.779,-3.6430000000000002,2.943,-4.156000000000001,5.052
"Aniline, 4-chloro-2-nitro-",89-63-4,Nc1ccc(Cl)cc1[N+]([O-])=O,Nc1ccc(Cl)cc1[N+](=O)[O-],1.579,-2.541,2.512,-7.51,-0.237
"Phenol, 2-sec-butyl-",89-72-5,CCC(C)c1ccccc1O,CCC(C)c1ccccc1O,3.523,-3.464,3.435,-4.297,9.916
Thymol,89-83-8,CC(C)c1ccc(C)cc1O,Cc1ccc(C(C)C)c(O)c1,4.142,-3.306,3.329,-5.032,10.553
"m-Xylene, 4-nitro-",89-87-2,Cc1ccc(c(C)c1)[N+]([O-])=O,Cc1ccc([N+](=O)[O-])c(C)c1,3.638,-2.9939999999999998,3.018,-4.058,3.661
"Benzaldehyde, 2-chloro-",89-98-5,Clc1ccccc1C=O,O=Cc1ccccc1Cl,2.56,-2.762,2.029,-4.61,2.411
"Phenol, 2-ethyl-",90-00-6,CCc1ccccc1O,CCc1ccccc1O,2.901,-2.356,2.6830000000000003,-5.561,10.322
"Benzaldehyde, 2-hydroxy-",90-02-8,Oc1ccccc1C=O,O=Cc1ccccc1O,1.141,-1.964,1.929,-8.897,7.402
"Aniline, 2-methoxy-",90-04-0,COc1ccccc1N,COc1ccccc1N,0.441,-1.791,1.214,-6.832000000000001,4.057
"Phenol, 2-methoxy-",90-05-1,COc1ccccc1O,COc1ccccc1O,1.223,-1.9609999999999999,1.379,-6.752000000000001,9.309
1-Naphthol,90-15-3,Oc1cccc2ccccc12,Oc1cccc2ccccc12,2.749,-3.213,2.98,-6.776,9.465
"1-Naphthylamine, N-phenyl-",90-30-2,N(c1ccccc1)c2cccc3ccccc23,c1ccc(Nc2cccc3ccccc23)cc1,3.619,-4.503,4.817,-6.694,3.314
"Phenol, 2-phenyl-",90-43-7,Oc1ccccc1c2ccccc2,Oc1ccccc1-c1ccccc1,2.992,-3.838,3.506,-5.792000000000001,10.536
"Phenol, 2,4,6-tris[(dimethylamino)methyl]-",90-72-2,CN(C)Cc1cc(CN(C)C)c(O)c(CN(C)C)c1,CN(C)Cc1cc(CN(C)C)c(O)c(CN(C)C)c1,-0.685,-3.1910000000000003,0.972,-9.613999999999999,8.884
"D-Glucono-1,5-lactone",90-80-2,OC[C@H]1OC(=O)[C@H](O)[C@@H](O)[C@@H]1O,O=C1O[C@H](CO)[C@@H](O)[C@H](O)[C@H]1O,-1.14,0.502,-3.108,-19.262,7.978
"Benzene, 1,3-diisocyanato-2-methyl-",91-08-7,Cc1c(cccc1N=C=O)N=C=O,Cc1c(N=C=O)cccc1N=C=O,0.086,-2.242,2.617,-8.623,3.453
Phthalonitrile,91-15-6,N#Cc1ccccc1C#N,N#Cc1ccccc1C#N,0.888,-1.661,1.07,-6.566,5.65
Naphthalene,91-20-3,c1ccc2ccccc2c1,c1ccc2ccccc2c1,3.5010000000000003,-3.467,3.339,-2.8489999999999998,2.602
Quinoline,91-22-5,c1ccc2ncccc2c1,c1ccc2ncccc2c1,2.0980000000000003,-2.763,2.123,-5.452999999999999,4.121
"Benzene, 1-methoxy-2-nitro-",91-23-6,COc1ccccc1[N+]([O-])=O,COc1ccccc1[N+](=O)[O-],1.907,-2.434,1.874,-4.743,4.712
"Quinoline, 6-ethoxy-1,2-dihydro-2,2,4-trimethyl-",91-53-2,CCOc1ccc2NC(C)(C)C=C(C)c2c1,CCOc1ccc2c(c1)C(C)=CC(C)(C)N2,3.647,-4.246,4.056,-5.916,5.964
"Naphthalene, 2-methyl-",91-57-6,Cc1ccc2ccccc2c1,Cc1ccc2ccccc2c1,3.97,-3.9019999999999997,3.813,-3.009,3.119
2H-1-Benzopyran-2-one,91-64-5,O=C1Oc2ccccc2C=C1,O=c1ccc2ccccc2o1,1.783,-2.662,1.575,-7.835,0.214
"Aniline, N,N-diethyl-",91-66-7,CCN(CC)c1ccccc1,CCN(CC)c1ccccc1,3.208,-3.4160000000000004,3.054,-3.924,6.541
"Phenol, 3-(diethylamino)-",91-68-9,CCN(CC)c1cccc(O)c1,CCN(CC)c1cccc(O)c1,2.9930000000000003,-3.1439999999999997,2.451,-7.691,8.96
"Toluene, 2-nitro-",88-72-2,Cc1ccccc1[N+]([O-])=O,Cc1ccccc1[N+](=O)[O-],2.774,-2.481,2.3680000000000003,-3.889,3.827
"Benzene, 1-chloro-2-nitro-",88-73-3,[O-][N+](=O)c1ccccc1Cl,O=[N+]([O-])c1ccccc1Cl,3.012,-2.812,2.282,-4.052,5.068
"Aniline, 2-nitro-",88-74-4,Nc1ccccc1[N+]([O-])=O,Nc1ccccc1[N+](=O)[O-],0.124,-1.8840000000000001,1.703,-7.756,0.93
"Phenol, 2-nitro-",88-75-5,Oc1ccccc1[N+]([O-])=O,O=[N+]([O-])c1ccccc1O,0.963,-2.062,1.807,-7.567,7.117
2-Hydroxy-3-napthoic acid,92-70-6,OC(=O)c1cc2ccccc2cc1O,O=C(O)c1cc2ccccc2cc1O,0.057,-3.154,2.583,-10.212,3.138
10H-Phenothiazine,92-84-2,N1c2ccccc2Sc3ccccc13,c1ccc2c(c1)Nc1ccccc1S2,3.965,-4.203,3.764,-6.587999999999999,2.702
"4,4'-Biphenyldiol",92-88-6,Oc1ccc(cc1)c2ccc(O)cc2,Oc1ccc(-c2ccc(O)cc2)cc1,3.069,-3.511,2.947,-9.316,9.479
Methyl benzoate,93-58-3,COC(=O)c1ccccc1,COC(=O)c1ccccc1,3.03,-2.458,2.158,-4.838,2.287
"Propionic acid, 2-(4-chloro-o-tolyl)oxo-",93-65-2,Cc1ccc(Cl)cc1C(C=O)C(O)=O,Cc1ccc(Cl)cc1C(C=O)C(=O)O,-1.289,-3.4560000000000004,1.44,-9.412,3.305
"Butanamide, N-(2-methylphenyl)-3-oxo-",93-68-5,CC(=O)CC(=O)Nc1ccccc1C,CC(=O)CC(=O)Nc1ccccc1C,1.21,-2.291,1.046,-9.707,7.679
"Oleamide, N,N-bis(2-hydroxyethyl)-",93-83-4,CCCCCCCC\C=C/CCCCCCCC(=O)N(CCO)CCO,CCCCCCCC/C=C\CCCCCCCC(=O)N(CCO)CCO,3.735,-3.9819999999999998,5.073,-6.234,6.187
"2H-Benzimidazol-2-one, 1,3-dihydro-5-nitro-",93-84-5,[O-][N+](=O)c1ccc2NC(=O)Nc2c1,O=c1[nH]c2ccc([N+](=O)[O-])cc2[nH]1,1.841,-2.115,1.229,-14.475,5.065
"Hexanoic acid, 2-ethyl-, diester with TEG",94-28-0,CCCCC(CC)C(=O)OCCOCCOCCOC(=O)C(CC)CCCC,CCCCC(CC)C(=O)OCCOCCOCCOC(=O)C(CC)CCCC,4.589,-4.001,4.328,-4.545,11.602
Benzoyl peroxide,94-36-0,O=C(OOC(=O)c1ccccc1)c2ccccc2,O=C(OOC(=O)c1ccccc1)c1ccccc1,2.324,-3.8569999999999998,3.605,-6.457999999999999,0.355
"Dimethyl cyclohexane-1,4-dicarboxylate",94-60-0,COC(=O)C1CCC(CC1)C(=O)OC,COC(=O)C1CCC(C(=O)OC)CC1,3.064,-2.168,0.8959999999999999,-5.033,7.237
"Aniline, N-ethyl-2-methyl-",94-68-8,CCNc1ccccc1C,CCNc1ccccc1C,2.5540000000000003,-2.855,2.517,-5.018,4.268
"Phenol, 2-ethoxy-",94-71-3,CCOc1ccccc1O,CCOc1ccccc1O,2.448,-2.5180000000000002,1.746,-6.121,9.297
"Acetic acid, ((4-chloro-o-tolyl)oxy)-",94-74-6,Cc1ccc(Cl)cc1OCC(O)=O,Cc1ccc(Cl)cc1OCC(=O)O,-1.223,-2.853,2.546,-6.984,3.468
"Acetic acid, (2,4-dichlorophenoxy)-",94-75-7,OC(=O)COc1ccc(Cl)cc1Cl,O=C(O)COc1ccc(Cl)cc1Cl,-1.153,-3.179,2.428,-7.019,3.594
indene,95-13-6,C1C=Cc2ccccc12,C1=Cc2ccccc2C1,3.346,-3.153,3.116,-3.21,2.685
1H-Benzotriazole,95-14-7,[nH]1nnc2ccccc12,c1ccc2[nH]nnc2c1,0.785,-1.871,1.057,-12.093,5.214
Benzothiazole,95-16-9,s1cnc2ccccc12,c1ccc2scnc2c1,2.204,-2.745,1.95,-6.121,1.355
"2-Benzothiazolesulfeamide, N-(1,1-dimethylethyl)-",95-31-8,CC(C)(C)NSc1sc2ccccc2n1,CC(C)(C)NSc1nc2ccccc2s1,3.548,-4.621,3.898,-6.861000000000001,5.853
"Benzothiazole, 2-(4-morpholinodithio)-",95-32-9,C1CN(CCO1)SSc2sc3ccccc3n2,c1ccc2sc(SSN3CCOCC3)nc2c1,3.287,-3.7,2.9810000000000003,-7.353,3.748
"2-Benzothiazolesulfenamide, N-cyclohexyl-",95-33-0,C1CCC(CC1)NSc2sc3ccccc3n2,c1ccc2sc(SNC3CCCCC3)nc2c1,3.683,-4.673,4.203,-6.487,6.231
"1H-Imidazole-1-ethanol, 2-(8-heptadecenyl)-4,5-dihydro-",95-38-5,CCCCCCCCC=CCCCCCCCC1=NCCN1CCO,CCCCCCCCC=CCCCCCCCC1=NCCN1CCO,3.394,-4.427,6.551,-4.57,7.862
o-Xylene,95-47-6,Cc1ccccc1C,Cc1ccccc1C,3.772,-2.823,3.249,-0.85,3.598
o-Cresol,95-48-7,Cc1ccccc1O,Cc1ccccc1O,2.158,-2.095,2.061,-5.752999999999999,10.136
"Toluene, 2-chloro-",95-49-8,Cc1ccccc1Cl,Cc1ccccc1Cl,4.114,-3.097,3.449,-1.07,3.552
"Benzene, 1,2-dichloro-",95-50-1,Clc1ccccc1Cl,Clc1ccccc1Cl,4.211,-3.4530000000000003,3.423,-1.181,4.82
"Aniline, 2-chloro-",95-51-2,Nc1ccccc1Cl,Nc1ccccc1Cl,1.5019999999999998,-2.1830000000000003,1.7919999999999998,-6.0920000000000005,1.637
"Aniline, 2-methyl-",95-53-4,Cc1ccccc1N,Cc1ccccc1N,0.43,-1.895,1.331,-5.777,4.523
"1,2-Benzenediamine",95-54-5,Nc1ccccc1N,Nc1ccccc1N,-0.528,-1.192,0.079,-10.579,5.733
"Phenol, 2-amino-",95-55-6,Nc1ccccc1O,Nc1ccccc1O,0.321,-1.406,0.6659999999999999,-10.440999999999999,8.859
"Phenol, 2-chloro-",95-57-8,Oc1ccccc1Cl,Oc1ccccc1Cl,2.612,-2.386,2.274,-6.042000000000001,7.772
"Benzene, 1,2,4-trimethyl-",95-63-6,Cc1ccc(C)c(C)c1,Cc1ccc(C)c(C)c1,4.2360000000000015,-3.358,3.816,-1.315,3.966