chemical_name,cas,smiles,canonical_smiles,log_p,log_s,kow,water-energy,pka
"1,6-Hexanediaminium, N,N,N',N'-tetrabutyl-N,N'-diethyl-, bis(ethyl sulfate)",68052-49-3,CCCC[N+](CC)(CCCC)CCCCCC[N+](CC)(CCCC)CCCC.CCO[S]([O-])(=O)=O.CCO[S]([O-])(=O)=O,CCCC[N+](CC)(CCCC)CCCCCC[N+](CC)(CCCC)CCCC.CCOS(=O)(=O)[O-].CCOS(=O)(=O)[O-],-0.077,-3.196,-0.45,-3.4789999999999996,8.295
"Sulfuric acid, mono-C10-16-alkyl esters, ammonium salts",68081-96-9,[NH4+].[NH4+].[O-][S]([O-])(=O)=O,O=S(=O)([O-])[O-].[NH4+].[NH4+],-0.68,0.195,-0.536,-5.97,14.456
"Sulfuric acid, mono-C14-18-alkyl esters, sodium salts",68081-98-1,[Na+].[Na+].[O-][S]([O-])(=O)=O,O=S(=O)([O-])[O-].[Na+].[Na+],-0.043,-0.096,-0.093,-6.5729999999999995,3.16
"Sulfuric acid, mono-C8-18-alkyl esters, sodium salts",68130-43-8,[Na+].CCCCCCCCCCCCCO[S]([O-])(=O)=O,CCCCCCCCCCCCCOS(=O)(=O)[O-].[Na+],4.74,-3.43,5.856,-3.452,5.285
"1,2,4-Benzenetricarboxylic acid, mixed decyl and hexyl and octyl esters",68130-50-7,OCCN(CCO)CCO.OC(=O)CCCCCCCC(O)=O,O=C(O)CCCCCCCC(=O)O.OCCN(CCO)CCO,-1.137,-0.899,-1.005,-9.895,7.271
"Decanoic acid, mixed esters with heptanoic acid, isovaleric acid, octanoic",68130-51-8,CCCCCCCCCCCC(=O)OCC(COC(=O)CCCCCC)(COC(=O)CCCCCCC)COC(=O)CC(C)C,CCCCCCCCCCCC(=O)OCC(COC(=O)CCCCCC)(COC(=O)CCCCCCC)COC(=O)CC(C)C,5.631,-5.113,6.814,-3.912,6.181
"Decanoic acid, mixed esters with heptanoic acid, octanoic acid andtrimethylolpropane",68130-53-0,CCCCCCCCCCCC(=O)OCC(COC(=O)CCCCCC)OC(=O)CCCCCCC,CCCCCCCCCCCC(=O)OCC(COC(=O)CCCCCC)OC(=O)CCCCCCC,5.188,-4.956,7.108,-3.4419999999999997,7.886
"2-(2-Heptadecyl-4,5-dihydro-1H-imidazol-1-yl)ethyl stearate",68134-26-9,CCCCCCCCCCCCCCCCCC(=O)OCCN1CCN=C1CCCCCCCCCCCCCCCCC,CCCCCCCCCCCCCCCCCC(=O)OCCN1CCN=C1CCCCCCCCCCCCCCCCC,4.893,-5.83,9.376,-2.74,8.229
"1H-Imidazole-1-ethanamine, 4,5-dihydro-, 2-nortall-oil alkyl derivs., acetates",68140-11-4,NCCN1CCN=C1,NCCN1C=NCC1,-1.795,-0.804,-1.0,-10.418,8.831
Naphthalenesulfonic acids,68153-01-5,O[S](=O)(=O)c1cccc2ccccc12,O=S(=O)(O)c1cccc2ccccc12,1.385,-2.4419999999999997,-0.644,-10.059,-4.83
"Nitriles, C16-22",68153-02-6,CCCCCCCCCCCCCCCCCCC#N,CCCCCCCCCCCCCCCCCCC#N,4.803,-5.362,8.155,-1.162,9.652
"Amines, di-C12-18-alkyl",68153-95-7,CCCCCCCCCCCCCCCNCCCCCCCCCCCCCCC,CCCCCCCCCCCCCCCNCCCCCCCCCCCCCCC,4.267,-5.875,9.431,-1.273,10.252
"Amides, C12-18, N,N-bis(hydroxyethyl)",68155-06-6,CCCCCCCCCCC(=O)N(CCO)CCO,CCCCCCCCCCC(=O)N(CCO)CCO,2.87,-3.1510000000000002,2.733,-7.567,6.9
"Amines, C14-18 and C16-18-unsatd. alkyl",68155-38-4,CCCCCCCC\C=C\CCCCCCN,CCCCCCCC/C=C/CCCCCCN,1.808,-4.69,5.272,-2.144,9.568
"Ethanone, 1-(1,2,3,4,6,7,8,8a-octahydro-2,3,8,8-tetramethyl-2-naphthalenyl)-",68155-67-9,CC1CC2=CCCC(C)(C)C2CC1(C)C(C)=O,CC(=O)C1(C)CC2C(=CCCC2(C)C)CC1C,3.928,-3.49,4.0139999999999985,-2.45,7.049
"Ethanol, 2,2',2''-nitrilotris-, tris(dihydrogen phosphate) (ester),sodium salt",68171-29-9,[Na+].O[P](O)(=O)OCCN(CCO[P](O)(O)=O)CCO[P](O)(O)=O,O=P(O)(O)OCCN(CCOP(=O)(O)O)CCOP(=O)(O)O.[Na+],1.6769999999999998,0.256,-4.049,-15.273,3.919
"Octadecanoic acid, branched and linear",68201-37-6,CCCCC(CC)CCCCCC(C)CCCC(O)=O,CCCCC(CC)CCCCCC(C)CCCC(=O)O,3.542,-4.48,6.574,-1.55,6.226
"Propanoic acid, 2-hydroxy-, compd.with 3-[2-(dimethylamino)ethyl] 1-(2-ethy",68227-46-3,CCCCC(CC)COC(=O)Nc1ccc(C)c(NC(=O)OCCN(C)C)c1.CC(O)C(O)=O,CC(O)C(=O)O.CCCCC(CC)COC(=O)Nc1ccc(C)c(NC(=O)OCCN(C)C)c1,0.363,-3.0180000000000002,2.154,-9.539,7.147
"Propanenitrile, 3-(tridecyloxy)-",68239-19-0,CCCCCCCCCCCCCOCCC#N,CCCCCCCCCCCCCOCCC#N,4.073,-4.272,5.9460000000000015,-2.843,10.584
"Cyclopentane, heptachloro-",68258-90-2,ClC1CC(Cl)(Cl)C(Cl)(Cl)C1(Cl)Cl,ClC1CC(Cl)(Cl)C(Cl)(Cl)C1(Cl)Cl,4.624,-4.257,4.843,-0.977,9.35
"Cyclopentane, hexachloro-",68258-91-3,ClC1(Cl)CCC(Cl)(Cl)C1(Cl)Cl,ClC1(Cl)CCC(Cl)(Cl)C1(Cl)Cl,4.578,-4.073,4.511,-1.006,9.755
"Ethanol, 2,2'-iminobis-, monoester with boric acid",68298-96-4,OCCNCCOB(O)O,OCCNCCOB(O)O,-0.933,0.474,-1.7990000000000002,-12.505999999999998,8.283
"Fatty acids, montan-wax, calcium salts",68308-22-5,[Ca++].CCCCCCCCCCCCCCCCCCCCCCCCCCCC([O-])=O,CCCCCCCCCCCCCCCCCCCCCCCCCCCC(=O)[O-].[Ca+2],5.32,-5.777,10.221,-1.238,8.213
Diammonium bis(carbonato) dihydroxy zirconate,68309-95-5,[NH4+].[NH4+].[OH-].[OH-].[Zr+4].[O-]C([O-])=O.[O-]C([O-])=O,O=C([O-])[O-].O=C([O-])[O-].[NH4+].[NH4+].[OH-].[OH-].[Zr+4],-1.5630000000000002,-0.45399999999999996,0.212,-3.863,18.169
"Alcohols, C14-16",68333-80-2,CCCCCCCCCCCCCCO,CCCCCCCCCCCCCCO,4.3210000000000015,-4.401,6.319,-2.019,7.866
"Aromatic hydrocarbons, C9-17",68333-88-0,C1CCCCCCCC1,C1CCCCCCCC1,5.218,-2.891,3.587,0.847,8.939
"Benzene, (1-methylethyl)-, oxidized, polyphenyl residues",68333-89-1,CC(C)c1ccccc1,CC(C)c1ccccc1,4.383,-3.1630000000000003,3.759,-0.97,3.485
2-Hydroxyethyl-3-(hydroxymethylphosphinoyl)propionate,68334-62-3,OCCOC(=O)CC[PH](=O)CO,O=C(CC[PH](=O)CO)OCCO,0.058,-0.369,-1.663,-10.993,8.314
"Phosphorodithioic acid, 2-ethylhexyl 2-methylpropyl ester",68389-47-9,CCCCC(CC)CO[P]([S-])(=S)OCC(C)C,CCCCC(CC)COP(=S)([S-])OCC(C)C,5.29,-4.44,6.477,-3.036,4.317
"Hydrocarbons, C3, chloro",68390-96-5,CC(Cl)CCl,CC(Cl)CCl,4.795,-1.795,2.064,-1.135,15.175
"Quaternary ammonium compounds, benzyl-C12-18-alkyldimethyl, chlorides",68391-01-5,[Cl-].CCCCCCCCCCCCCC[N+](C)(C)Cc1ccccc1,CCCCCCCCCCCCCC[N+](C)(C)Cc1ccccc1.[Cl-],2.321,-5.435,3.056,-1.58,7.746
"Quaternary ammonium compounds, di-C12-18-alkyldimethyl, chlorides",68391-05-9,[Cl-].CCCCCCCCCCCCCC[N+](C)(C)CCCCCCCCCCCCCC,CCCCCCCCCCCCCC[N+](C)(C)CCCCCCCCCCCCCC.[Cl-],2.999,-5.693,5.73,-0.48700000000000004,8.747
"Aromatic hydrocarbons, biphenyl-rich",68409-73-4,c1ccc(cc1)c2ccccc2,c1ccc(-c2ccccc2)cc1,3.716,-3.99,4.093,-2.573,3.48
"Benzenesulfonic acid, dodecyl-, branched",68411-32-5,CCC(C(C)CC(C)CC(C)C)c1ccc(cc1)[S](O)(=O)=O,CCC(c1ccc(S(=O)(=O)O)cc1)C(C)CC(C)CC(C)C,3.82,-4.505,2.714,-5.539,1.752
"Benzenamine, N-phenyl-, reaction products with 2,4,4-trimethylpentene",68411-46-1,CC(=C)CC(C)(C)C.N(c1ccccc1)c2ccccc2,C=C(C)CC(C)(C)C.c1ccc(Nc2ccccc2)cc1,3.943,-3.721,4.3610000000000015,-3.846,3.457
"2,5-Furandione, 3-(dodecenyl)dihydro-, reaction products with propylene oxi",68411-58-5,CCCCCCCCCC/C=C/C1CC(=O)OC1=O.CC2CO2,CC1CO1.CCCCCCCCCC/C=C/C1CC(=O)OC1=O,2.857,-3.0410000000000004,4.323,-4.173,5.223
"Ethane, chloro derivs.",68411-72-3,CCCl,CCCl,4.425,-1.2209999999999999,1.361,-0.263,18.326
"Cyclohexane oxidized, non-volatile residue",68411-76-7,C1CCCCC1,C1CCCCC1,5.218,-2.891,3.587,0.847,8.939
"Lead oxide (PbO), lead-contg.",68411-78-9,[O--].[Pb++],[O-2].[Pb+2],1.644,-1.6030000000000002,2.411,-4.298,5.08
"2-Imidazolidinone, 4,5-dihydroxy-1,3-bis(hydroxymethyl)-, methylated",68411-81-4,COCN1C(O)C(O)N(COC)C1=O,COCN1C(=O)N(COC)C(O)C1O,-0.552,0.015,-0.823,-15.842,6.216
"Hexanedinitrile, hydrogenated, high-boiling fraction",68411-90-5,N#CCCCCC#N,N#CCCCCC#N,-0.471,-1.202,-0.354,-6.13,19.268
"1,6-Octadiene, 7-methyl-3-methylene-, acetylated",68412-04-4,CC(=O)OC/C=C(C)/CCC=C(C)C,CC(=O)OC/C=C(\C)CCC=C(C)C,3.49,-3.0660000000000003,3.852,-3.443,9.353
"Silicic acid (H4SiO4), tetraethyl ester, hydrolyzed",68412-37-3,CCO[Si](OCC)(OCC)OCC,CCO[Si](OCC)(OCC)OCC,3.16,-2.1180000000000003,0.536,-5.754,15.444
"Pyridine, chloro derivs.",68412-40-8,Clc1ccccn1,Clc1ccccn1,1.6740000000000002,-1.892,1.225,-3.918,0.368
"Fatty acids, C14-22",68424-37-3,CCCCCCCCCCCCCCCCC(O)=O,CCCCCCCCCCCCCCCCC(=O)O,3.47,-4.633,7.301,-2.699,5.225
"Quaternary ammonium compounds, benzyl-C12-16-alkyldimethyl, chlorides",68424-85-1,[Cl-].CCCCCCCCCCCCCC[N+](C)(C)Cc1ccccc1,CCCCCCCCCCCCCC[N+](C)(C)Cc1ccccc1.[Cl-],2.321,-5.435,3.056,-1.58,7.746
"Amines, C12-16-alkyldimethyl",68439-70-3,CCCCCCCCCCCCCCCCN(C)C,CCCCCCCCCCCCCCCCN(C)C,3.0610000000000004,-4.958,7.146,-1.469,10.365
"Amines, N-(C14-18 and C16-18-unsatd.alkyl)trimethylenedi-",68439-73-6,CCCCCCCCCCCCCCN(CCC)CCC,CCCCCCCCCCCCCCN(CCC)CCC,3.699,-5.164,7.5379999999999985,-2.1,9.426
"Decanoic acid, mixed esters with dipentaerythritol, octanoic acid and valeric acid",68441-66-7,CCCCCCCCCC(O)=O.CCCCCCCC(O)=O.CCCCC(O)=O.OCC(CO)(CO)COCC(CO)(CO)CO,CCCCC(=O)O.CCCCCCCC(=O)O.CCCCCCCCCC(=O)O.OCC(CO)(CO)COCC(CO)(CO)CO,0.491,-1.381,0.438,-9.398,6.243
"Heptanoic acid, mixed esters with pentaerythritol and valeric acid",68441-94-1,CCCCCC(O)=O.CCCCC(O)=O.COCC(CO)(CO)CO,CCCCC(=O)O.CCCCCC(=O)O.COCC(CO)(CO)CO,-0.332,-0.647,-0.094,-9.41,6.098
"Acetaldehyde, reaction products with formaldehyde, by-products from",68442-60-4,CC=O.C=O,C=O.CC=O,-0.836,-0.027999999999999997,0.146,-3.409,4.789
"Benzenamine, N-phenyl-, styrenated",68442-68-2,CC(c1ccccc1)c2ccc(Nc3ccc(cc3)C(C)c4ccccc4)cc2,CC(c1ccccc1)c1ccc(Nc2ccc(C(C)c3ccccc3)cc2)cc1,4.287,-5.2970000000000015,6.8870000000000005,-5.933,2.936
"Benzene, mono C10-14 alkyl derivs.",68442-69-3,CCCCCCCCCCCCc1ccccc1,CCCCCCCCCCCCc1ccccc1,4.649,-5.597,8.693,-0.682,6.472
"Phthalic acid, mixed cetyl and stearyl esters",68442-70-6,CCCCCCCCCCCCCCCCCC(O)=O.CCCCCCCCCCCCCCCC(O)=O.OC(=O)c1ccccc1C(O)=O,CCCCCCCCCCCCCCCC(=O)O.CCCCCCCCCCCCCCCCCC(=O)O.O=C(O)c1ccccc1C(=O)O,1.4480000000000002,-4.2589999999999995,5.475,-4.876,4.272
"Zinc, dithiophosphate mixed iso-Bu and pentyl esters",68457-79-4,[Zn++].CC(C)CO[P]([S-])(=S)OCC(C)C.CC(C)CO[P]([S-])(=S)OCC(C)C,CC(C)COP(=S)([S-])OCC(C)C.CC(C)COP(=S)([S-])OCC(C)C.[Zn+2],4.899,-3.5860000000000003,5.0139999999999985,-4.029,4.711
"Alkanes, C1-2",68475-57-0,CC,CC,4.646,-1.1909999999999998,1.931,2.026,5.816
"Alkanes, C2-3",68475-58-1,CC,CC,4.646,-1.1909999999999998,1.931,2.026,5.816
"Alkanes, C3-4",68475-59-2,CCCC,CCCC,3.624,-1.7619999999999998,2.964,2.528,5.242
"Alkanes, C4-5",68475-60-5,CCCCC,CCCCC,4.217,-1.96,3.606,2.4290000000000003,5.134
"Hydrocarbons, C4-5",68476-42-6,CCCC,CCCC,3.624,-1.7619999999999998,2.964,2.528,5.242
"Hydrocarbons, C4-6, C5-rich",68476-43-7,CCCCC,CCCCC,4.217,-1.96,3.606,2.4290000000000003,5.134
"Hydrocarbons, C>3",68476-44-8,CCCCCC,CCCCCC,4.586,-2.291,3.888,2.186,6.252
"Hydrocarbons, C2-4, C3-rich",68476-49-3,CCC,CCC,5.465,-1.47,2.434,2.214,6.854
"Hydrocarbons, C5-rich",68476-55-1,CCCCC,CCCCC,4.217,-1.96,3.606,2.4290000000000003,5.134
"Hydrocarbons, cyclic C5 and C6",68476-56-2,C1CCCC1,C1CCCC1,5.218,-2.891,3.587,0.847,8.939
"1,3-Propanediamine, N-[3-(tridecyloxy)propyl]-, branched",68479-04-9,CC(C)CC(C)CCCCCCCOCCCNCCCN,CC(C)CC(C)CCCCCCCOCCCNCCCN,0.75,-4.135,3.724,-3.943,10.168
"Benzenediamine, diethyl methyl-",68479-98-1,CCc1c(C)cc(N)c(CC)c1N,CCc1c(C)cc(N)c(CC)c1N,1.51,-2.9530000000000003,2.539,-7.608,6.381
"Benzene, (tetrapropenyl) derivs.",68512-02-7,C/C=C/c1cc(\C=C\C)c(\C=C\C)cc1\C=C\C,C/C=C/c1cc(/C=C/C)c(/C=C/C)cc1/C=C/C,3.924,-5.357,5.768,-4.96,8.085
"Nitriles, C14-18 and C16-18-unsatd.",68513-04-2,CCCCC/C=C/CCC/C=C/C=C/CC#N,CCCCC/C=C/CCC/C=C/C=C/CC#N,3.298,-3.9210000000000003,5.497999999999998,-3.411,7.947
"Disulfides, C5-12-alkyl",68513-62-2,CCCCCSSCCCCC,CCCCCSSCCCCC,5.274,-4.169,5.568,-1.435,8.256
"Butane, branched and linear",68513-65-5,CCC(C)C,CCC(C)C,2.954,-2.151,2.9810000000000003,2.739,9.205
"Hydrocarbons, C1-4",68514-31-8,CCCC,CCCC,3.624,-1.7619999999999998,2.964,2.528,5.242
"Hydrocarbons, C10 and C12, olefin-rich",68514-32-9,C=C\C=C\C=C\C=C\C=C,C=C/C=C/C=C/C=C/C=C,0.885,-2.457,4.053,-4.295,7.326
"Hydrocarbons, C12 and C14, olefin-rich",68514-33-0,C\C=C\C\C=C\C=C\C\C=C\C,C/C=C/C/C=C/C=C/C/C=C/C,2.841,-3.4010000000000002,4.725,-2.609,7.087
"Hydrocarbons, C14-30, olefin-rich",68514-35-2,C\C=C\CC\C=C\CCCC\C=C\CC\C=C\CC\C=C\CC\C=C\C,C/C=C/CC/C=C/CC/C=C/CC/C=C/CCCC/C=C/CC/C=C/C,4.259,-4.933,8.222999999999999,-1.942,5.487
"Hydrocarbons, C4-10-unsatd.",68514-38-5,C/C=C/C=C/C,C/C=C/C=C/C,0.657,-1.669,2.521,-1.216,6.736
"Ketones, C12-branched",68514-41-0,CC(C)CCCC(=O)CCC(C)C,CC(C)CCCC(=O)CCC(C)C,5.14,-3.248,4.07,-1.6680000000000001,10.295
"Phthalic acid, benzyl C7-9-branched and linear",68515-40-2,CCCCCCCCOC(=O)c1ccccc1C(=O)OCc2ccccc2,CCCCCCCCOC(=O)c1ccccc1C(=O)OCc1ccccc1,4.397,-5.416,6.3039999999999985,-4.86,4.583
"Phthalic acid, di-C7-9-branched & linear esters",68515-41-3,CCC(CC)C(C)COC(=O)c1ccccc1C(=O)OCC(C)C(CC)CC,CCC(CC)C(C)COC(=O)c1ccccc1C(=O)OCC(C)C(CC)CC,4.292,-5.8370000000000015,6.544,-3.062,6.105
"Phthalic acid, di-C9-11-branched & linear alkyl esters",68515-43-5,CCCCCCCCOC(=O)c1ccccc1C(=O)OCCCCCCCC,CCCCCCCCOC(=O)c1ccccc1C(=O)OCCCCCCCC,5.159,-5.875,7.824,-3.885,5.922
"1,2-Benzenedicarboxylic acid, diheptyl ester, branched and linear",68515-44-6,CCCCCCCOC(=O)c1ccccc1C(=O)OCCCCCCC,CCCCCCCOC(=O)c1ccccc1C(=O)OCCCCCCC,5.092,-5.71,7.257999999999999,-4.15,5.651
"1,2-Benzenedicarboxylic acid, dinonyl ester, branched and linear",68515-45-7,CCCCCCCCCOC(=O)c1ccccc1C(=O)OCCCCCCCCC,CCCCCCCCCOC(=O)c1ccccc1C(=O)OCCCCCCCCC,5.215,-6.004,8.312999999999999,-3.656,6.151
"Phthalic acid, di-C11-14-branched alkyl esters C13 rich",68515-47-9,CC(C)CCCCCCCCCCOC(=O)c1ccccc1C(=O)OCCCCCCCCCCC(C)C,CC(C)CCCCCCCCCCOC(=O)c1ccccc1C(=O)OCCCCCCCCCCC(C)C,5.308,-6.282,9.448,-2.765,7.265
"Phthalic acid, di-C8-10 branched alkyl esters C9 rich",68515-48-0,CC(C)CCCCCCOC(=O)c1ccccc1C(=O)OCCCCCCC(C)C,CC(C)CCCCCCOC(=O)c1ccccc1C(=O)OCCCCCCC(C)C,5.157,-5.9460000000000015,7.954,-3.412,6.84
"Phthalic acid, di-C9-11 branched alkyl esters C10 rich",68515-49-1,CC(C)CCCCCCCOC(=O)c1ccccc1C(=O)OCCCCCCCC(C)C,CC(C)CCCCCCCOC(=O)c1ccccc1C(=O)OCCCCCCCC(C)C,5.209,-6.053,8.401,-3.221,6.994
"Phthalic acid, dihexyl, branched & linear esters",68515-50-4,CC(C)CCCOC(=O)c1ccccc1C(=O)OCCCC(C)C,CC(C)CCCOC(=O)c1ccccc1C(=O)OCCCC(C)C,4.784,-5.482,6.218,-4.133,7.108
"1,2,4-Benzenetricarboxylic acid, tri-C7-9-alkyl esters, branched and linear",68515-60-6,CCCC(CC)COC(=O)c1ccc(C(=O)OCC(C)C(C)CC)c(c1)C(=O)OCC(CC)CCC,CCCC(CC)COC(=O)c1ccc(C(=O)OCC(C)C(C)CC)c(C(=O)OCC(CC)CCC)c1,5.0310000000000015,-5.919,7.588999999999999,-3.8810000000000002,4.897
"Hexanedioic acid, di-C7-9-branched and linear alkyl esters",68515-75-3,CCCCCCCCOC(=O)CCCCC(=O)OCCCCCCCC,CCCCCCCCOC(=O)CCCCC(=O)OCCCCCCCC,5.485,-4.718,6.352,-2.875,6.667
"Phosphorodithioic acid, mixed O,O-bis(iso-Bu and pentyl) esters",68516-01-8,CCCCCO[P](S)(=S)OCC(C)C,CCCCCOP(=S)(S)OCC(C)C,4.933,-3.467,5.113,-5.278,3.43
1-(2-Hydroxy-5-tert-nonylphenyl)ethan-1-one oxime,68517-09-9,C\C(NO)=C/1C=C(CCCCCC(C)(C)C)C=CC1=O,C/C(NO)=C1/C=C(CCCCCC(C)(C)C)C=CC1=O,3.1260000000000003,-3.657,4.17,-6.481,8.788
"Alkenes, C6",68526-52-3,CC\C=C\CC,CC/C=C/CC,3.977,-2.202,3.208,0.9259999999999999,5.189
"Alkenes, C6-8, C7-rich",68526-53-4,CCCCCC=C,C=CCCCCC,4.751,-2.6830000000000003,3.928,1.345,4.741
"Alkenes, C7-9, C8-rich",68526-54-5,CCCCCCC=C,C=CCCCCCC,4.893,-3.207,4.606,1.194,5.664
"Alkenes, C8-10, C9-rich",68526-55-6,CCCCCCCC=C,C=CCCCCCCC,4.995,-3.658,5.1629999999999985,1.032,5.602
"Alkenes, C9-11, C10-rich",68526-56-7,CC/C=C/CC/C=C/C=C,C=C/C=C/CC/C=C/CC,3.128,-3.125,4.5,-1.545,4.814
"Alkenes, C10-12, C11-rich",68526-57-8,CCCCCCCCCC=C,C=CCCCCCCCCC,5.15,-4.372,6.371,0.812,6.176
"Alkenes, C11-13, C12-rich",68526-58-9,CCCCCCCCCCC=C,C=CCCCCCCCCCC,5.206,-4.6419999999999995,6.9910000000000005,0.7290000000000001,6.38
"Hexanol, branched and linear",68526-79-4,CC(C)CCCO,CC(C)CCCO,1.5119999999999998,-1.392,1.903,-3.194,11.281
"Alcohols, C7-9-iso-, C8-rich",68526-83-0,CC(C)CCCCCO,CC(C)CCCCCO,2.776,-2.26,2.867,-2.696,8.748
"Alcohols, C8-10-iso-, C9-rich",68526-84-1,CC(C)CCCCCCO,CC(C)CCCCCCO,3.18,-2.694,3.448,-2.479,8.43
"Alcohols, C9-11-iso-, C10-rich",68526-85-2,CC(C)CCCCCCCO,CC(C)CCCCCCCO,3.488,-3.122,3.996,-2.279,8.434
"Alcohols, C11-14-iso-, C13-rich",68526-86-3,CC(C)CCCCCCCCCCO,CC(C)CCCCCCCCCCO,4.125,-4.065,5.557,-1.835,8.447
"Alkenes, C12-30, alpha-, bromo chloro",68527-01-5,CCCC(Cl)C(Br)CCCCCC=C,C=CCCCCCC(Br)C(Cl)CCC,5.352,-5.141,6.16,-0.616,6.215
"Alkenes, C12-24, chloro",68527-02-6,ClCCCCC/C=C/CCCC=C,C=CCCC/C=C/CCCCCCl,4.941,-4.276,5.813,-1.1740000000000002,7.627
"Alkenes, C5",68527-11-7,CCCC=C,C=CCCC,4.1960000000000015,-1.8230000000000002,3.265,1.8459999999999999,3.713
"Hydrocarbons, C1-3",68527-16-2,CCC,CCC,5.465,-1.47,2.434,2.214,6.854
"Alcohols, C8-18",68551-07-5,CCCCCCCCCCCCO,CCCCCCCCCCCCO,4.018,-3.9010000000000002,5.194,-2.3,7.765
"Alkanes, C9-11-iso-",68551-16-6,CCCCCCCC(C)C,CCCCCCCC(C)C,5.124,-3.955,5.693,1.77,7.108
"Alkanes, C10-13-iso-",68551-17-7,CCCCCCCC(C)C,CCCCCCCC(C)C,5.124,-3.955,5.693,1.77,7.108
"Alkanes, C12-14-iso-",68551-19-9,CCCCCCCCCCC(C)C,CCCCCCCCCCC(C)C,5.3020000000000005,-4.779,7.372999999999998,1.348,7.46
"Alkanes, C13-16-iso-",68551-20-2,CCCCCCCCCCCCC(C)C,CCCCCCCCCCCCC(C)C,5.38,-5.147,8.293,1.151,7.593
"Hydrocarbons, C8-11",68553-14-0,C.CCCCCCCC,C.CCCCCCCC,4.7330000000000005,-2.88,4.39,1.736,7.668
"Phenol, 2,2'-[[[(2-hydroxy-5-octylphenyl)methyl]imino]bis(2,1-ethanediyliminomethylene)]bis[4-octyl-, calcium salt",68568-82-1,[Ca++].CCCCCCCCc1ccc(O)c(CN(CCNCc2cc(CCCCCCCC)ccc2[O-])CCNCc3cc(CCCCCCCC)ccc3[O-])c1,CCCCCCCCc1ccc([O-])c(CNCCN(CCNCc2cc(CCCCCCCC)ccc2[O-])Cc2cc(CCCCCCCC)ccc2O)c1.[Ca+2],3.775,-5.678999999999999,8.177999999999999,-6.01,9.263
"Decanoic acid, mixed diesters with octaboic acid and triethylene glycol",68583-52-8,CCCCCCCCCC(O)=O.CCCCCCCC(O)=O.OCCOCCOCCO,CCCCCCCC(=O)O.CCCCCCCCCC(=O)O.OCCOCCOCCO,0.552,-1.554,0.964,-6.287999999999999,6.227
"Benzenesulfonic acid, C10-16-alkyl derivatives",68584-22-5,CCCCCCCCCC(CC)c1ccc(cc1)[S](O)(=O)=O,CCCCCCCCCC(CC)c1ccc(S(=O)(=O)O)cc1,4.06,-4.47,3.4330000000000003,-6.055,0.15
"Benzenesulfonic acid, C10-16-alkyl derivs.,compd.with triethanolamine",68584-25-8,CCCCCCCCCCCCCc1ccc(cc1)[S](O)(=O)=O.OCCN(CCO)CCO,CCCCCCCCCCCCCc1ccc(S(=O)(=O)O)cc1.OCCN(CCO)CCO,1.774,-2.822,1.075,-8.285,4.223
Sodium C10-16-alkyl-sulfonates,68585-47-7,C.[Na+].CCCCCCCCCCCCCO[S]([O-])(=O)=O,C.CCCCCCCCCCCCCOS(=O)(=O)[O-].[Na+],4.6080000000000005,-3.25,5.556,-3.201,6.12
"Boric acid (H3BO3), compd.with 2-aminoethanol (1:1)",68586-07-2,NCCO.OB(O)O,NCCO.OB(O)O,-3.329,1.355,-1.223,-12.454,8.984
"Alcohols, C6-12",68603-15-6,CCCCCCCCO,CCCCCCCCO,2.958,-2.326,3.06,-3.178,7.436
"Carboxylic acids, di-, C4-6",68603-87-2,OC(=O)CCCC(O)=O,O=C(O)CCCC(=O)O,-3.874,-0.163,-0.789,-10.282,4.817
"Fatty acids, C8-18 and C18-unsatd., Me esters, distn. Residues",68604-39-7,COC(=O)C\C=C\C=C\C=C\C=C\C=C\C=C,C=C/C=C/C=C/C=C/C=C/C=C/CC(=O)OC,1.227,-2.516,4.11,-6.22,6.669
"Hydrocarbons, C2-4",68606-25-7,CC,CC,4.646,-1.1909999999999998,1.931,2.026,5.816
"Hydrocarbons, C3",68606-26-8,CCC,CCC,5.465,-1.47,2.434,2.214,6.854
"Hydrocarbons, C5 and C10-aliph. and C6-8-arom.",68606-28-0,CCCCCC.c1ccccc1,CCCCCC.c1ccccc1,3.307,-2.525,3.569,1.1540000000000001,2.44
"Acetic acid, chloro-, reaction products with 2-heptyl-4,5-dihydro-1H-imidazole-1-ethanol and sodium hydroxide",68608-64-0,[OH-].[Na+].CCCCCCCC1=NCCN1CCO.OC(=O)CCl,CCCCCCCC1=NCCN1CCO.O=C(O)CCl.[Na+].[OH-],-0.402,-1.726,1.062,-7.182,6.406
"Aniline, 2-ethyl-N-(2-ethylphenyl)-, (tripropenyl) derivs.",68608-77-5,CCc1c(CC=C)cccc1Nc2cc(CC=C)cc(CC=C)c2CC,C=CCc1cc(CC=C)c(CC)c(Nc2cccc(CC=C)c2CC)c1,4.539,-5.709,7.834,-5.459,5.672
"Benzene, C6-12-alkyl derivs.",68608-80-0,CCCCCCCCCc1ccccc1,CCCCCCCCCc1ccccc1,4.455,-5.131,7.381,-0.7709999999999999,6.02
"Benzenesulfonic acid, mono-C11-13-branched alkyl derivs., sodium salts",68608-89-9,[Na+].CCCCC(CC)CCCCCc1ccc(cc1)[S]([O-])(=O)=O,CCCCC(CC)CCCCCc1ccc(S(=O)(=O)[O-])cc1.[Na+],4.424,-4.626,6.158,-4.281000000000001,5.221
"9-Octadecenoic acid (9Z)-, epoxidized, ester with propylene glycol",68609-92-7,CCCCCCCC\C=C/CCCCCCCC(O)=O.CC(O)CO,CC(O)CO.CCCCCCCC/C=C\CCCCCCCC(=O)O,1.614,-2.8080000000000003,3.07,-5.227,5.718
"Formaldehyde, polymers with isobutylenated phenol",68610-07-1,Oc1ccccc1.C=O,C=O.Oc1ccccc1,1.005,-1.3459999999999999,1.103,-5.7170000000000005,8.353
"Phenol, 4-methyl-, reaction products with dicyclopentadiene and isobutylene",68610-51-5,CC(C)=C.Cc1ccc(O)cc1.C2C=CC3C4CC(C=C4)C23,C1=CC2C3C=CC(C3)C2C1.C=C(C)C.Cc1ccc(O)cc1,3.455,-2.952,3.394,-2.873,10.145
"2-Butenedioic acid (2E)-, di-C8-18-alkyl esters",68610-90-2,CCCCCCCCOC(=O)\C=C\C(=O)OCCCCCCCC,CCCCCCCCOC(=O)/C=C/C(=O)OCCCCCCCC,4.9289999999999985,-4.5569999999999995,6.971,-4.03,5.847
"Hydrocarbons, C>4",68647-60-9,CCCCC,CCCCC,4.217,-1.96,3.606,2.4290000000000003,5.134
"Nitriles, C8-18 and C18-unsatd.",68648-31-7,CCCCCCCC#N.CCC\C=C/CCCCCC#N,CCC/C=C\CCCCCC#N.CCCCCCCC#N,3.445,-3.012,3.384,-2.576,9.882