compound,flashpoint,pure substance,smiles,is_silicon,is_metallic,is_tin,is_acid
"Phenol, 3-methyl-4-(methylthio)-",401.85,1,CSc1ccc(O)cc1C,0,0,0,0
"Butanoic acid, 2-propenyl ester",314.85,1,C=CCOC(=O)CCC,0,0,0,1
ethyl cyclopropanecarboxylate,302.85,1,CCOC(=O)C1CC1,0,0,0,0
p-CUMYLPHENOL,433,1,CC(C)(c1ccccc1)c1ccc(O)cc1,0,0,0,0
iodobenzene,347,1,IC1=CC=CC=C1,0,0,0,0
Pent-4-en-1-ol,316.15,1,C=CCCCO,0,0,0,0
"Benzene, (epoxyethyl)-",352.55,1,c1ccc(C2CO2)cc1,0,0,0,0
2-methylpropyl 4-oxopentanoate,367.65,1,CC(=O)CCC(=O)OCC(C)C,0,0,0,0
3-ethyl-2-methylhexane,330.45,1,CCCC(CC)C(C)C,0,0,0,0
"2,6-dimethylbenzoic acid",399.25,1,Cc1cccc(C)c1C(=O)O,0,0,0,1
acetylene,255.15,1,C#C,0,0,0,0
DIPROPYLENE GLYCOL t-BUTYL ETHER,392,1,CC(CO)OCC(C)OC(C)(C)C,0,0,0,0
"1,3-Benzenedicarboxaldehyde (9CI)",367.25,1,O=Cc1cccc(C=O)c1,0,0,0,0
3-methylcyclohexanone,321,1,CC1CC(CCC1)=O,0,0,0,0
Carbonothioic dichloride,335.15,1,S=C(Cl)Cl,0,0,0,0
"9H-Fluoren-9-one, 2,4,7-trinitro-",565.45,1,O=C1c2cc([N+](=O)[O-])ccc2-c2c1cc([N+](=O)[O-])cc2[N+](=O)[O-],0,0,0,0
"2,2,3,4-tetramethylpentane",284,1,CC(C)(C(C(C)C)C)C,0,0,0,0
"1-Hexanol, 6-bromo-",368.75,1,OCCCCCCBr,0,0,0,0
"7H-Furo(3,2-g)(1)benzopyran-7-one, 9-methoxy-",477.811,1,COc1c2occc2cc2ccc(=O)oc12,0,0,0,0
3-methylheptane,279,1,CC(CC)CCCC,0,0,0,0
"Benzoic acid, 2-amino-, 2-phenylethyl ester",509.25,1,Nc1ccccc1C(=O)OCCc1ccccc1,0,0,0,1
1-(2-hydroperoxypropan-2-yl)-4-methylcyclohexane,326.15,1,CC1CCC(CC1)C(C)(C)OO,0,0,0,0
"Phenol, 2-amino-5-methyl-",372.95,1,Cc1ccc(N)c(O)c1,0,0,0,0
"Succinimide, N-bromo- (8CI)",360.85,1,O=C1CCC(=O)N1Br,0,0,0,0
CITRACONIC acid,493,1,C/C(=C/C(=O)O)C(=O)O,0,0,0,1
"1-Butanone, 1-(4-fluorophenyl)-4-(4-(2-pyridinyl)-1-piperazinyl)-",529.05,1,O=C(CCCN1CCN(c2ccccn2)CC1)c1ccc(F)cc1,0,0,0,0
5-Hexyn-1-ol,343.15,1,C#CCCCCO,0,0,0,0
"2,4-dimethylheptan-4-ol",343.15,1,CCCC(C)(O)CC(C)C,0,0,0,0
4-methyl-1H-indene,347.85,1,Cc1cccc2c1C=CC2,0,0,0,0
"p-Mentha-3,8-diene, 3,9-epoxy- (8CI)",348.65,1,Cc1coc2c1CCC(C)C2,0,0,0,0
2-ethyl-1-hexanol,347,1,C(C)C(CO)CCCC,0,0,0,0
"Propane, 1-bromo-2-methyl-",291.15,1,CC(C)CBr,0,0,0,0
"7-Octen-1-ol, 3,7-dimethyl-, acetate",359.95,1,C=C(C)CCCC(C)CCOC(C)=O,0,0,0,0
"1,1,2,3-tetrachloropropane",336.75,1,ClCC(Cl)C(Cl)Cl,0,0,0,0
"3,5-Dichloro-4-hydroxybenzonitrile",382.15,1,N#Cc1cc(Cl)c(O)c(Cl)c1,0,0,0,0
"Naphth(2,1,8-def)isoquinoline",456.35,1,c1cc2ccc3cncc4ccc(c1)c2c34,0,0,0,0
triethylamine,264,1,C(C)N(CC)CC,0,0,0,0
"5,8,11,14,17-Eicosapentaenoic acid",609.15,1,CCC=CCC=CCC=CCC=CCC=CCCCC(=O)O,0,0,0,1
"2,4-dimethylheptane",288,1,CC(C)CC(CCC)C,0,0,0,0
2-bromoacetyl bromide,345.15,1,O=C(Br)CBr,0,0,0,0
3-Bromohexane,313.25,1,CCCC(Br)CC,0,0,0,0
"2,5-dimethyl-1,3,4-thiadiazole",354.35,1,Cc1nnc(C)s1,0,0,0,0
"Cyclohexanol, 4-(1-methylethyl)-",353.95,1,CC(C)C1CCC(O)CC1,0,0,0,0
"Benzoic acid, 4-(1,1-dimethylethyl)-",408.05,1,CC(C)(C)c1ccc(C(=O)O)cc1,0,0,0,1
"Benzonitrile, 3-methyl-",359.85,1,Cc1cccc(C#N)c1,0,0,0,0
"1,2-dibromo-1-chloro-1,2,2-trifluoroethane",282.25,1,FC(F)(Br)C(F)(Cl)Br,0,0,0,0
"Benzoic acid, 5-methyl-2-nitro-",438.15,1,Cc1ccc([N+](=O)[O-])c(C(=O)O)c1,0,0,0,1
"2,4,6(1H,3H,5H)-Pyrimidinetrione, 5,5-diethyl-1-methyl-",409.55,1,CCC1(CC)C(=O)NC(=O)N(C)C1=O,0,0,0,0
oxolan-2-ylmethyl propanoate,365.15,1,CCC(=O)OCC1CCCO1,0,0,0,0
"2,4-pentanedione",311,1,CC(CC(C)=O)=O,0,0,0,0
"1-Penten-3-ol, 3-methyl-",299.15,1,C=CC(C)(O)CC,0,0,0,0
"Hydroquinone, 2,3-dimethyl- (8CI)",418.55,1,Cc1c(O)ccc(O)c1C,0,0,0,0
3-methyl-1-pentanol,331,1,CC(CCO)CC,0,0,0,0
"Acetamide, N-(2,5-dichlorophenyl)-",436.35,1,CC(=O)Nc1cc(Cl)ccc1Cl,0,0,0,0
"dicyclohexyl benzene-1,2-dicarboxylate",480.15,1,C1CCC(CC1)OC(=O)C2=CC=CC=C2C(=O)OC3CCCCC3,0,0,0,0
"Phenol, 4,4'-oxybis-",456.35,1,Oc1ccc(Oc2ccc(O)cc2)cc1,0,0,0,0
"2,2,3,3-tetrafluoropropyl 2-methylprop-2-enoate",323.75,1,C=C(C)C(=O)OCC(F)(F)C(F)F,0,0,0,0
trans-3-heptene,266,1,CC\C=C\CCC,0,0,0,0
3-ethyl-1-hexene,274,1,C(C)C(C=C)CCC,0,0,0,0
"2,6-dimethoxybenzonitrile",401.95,1,COc1cccc(OC)c1C#N,0,0,0,0
dimethyl phosphite,343.15,1,COP([O-])OC,0,0,0,0
oxolan-2-ylmethanol,348.15,1,C1CC(OC1)CO,0,0,0,0
2(3H)-Benzoxazolone,433.15,1,O=c1[nH]c2ccccc2o1,0,0,0,0
"(1R,4S,5'S,6R,6'R,8R,10E,13R,14E,16E,20R,21R,24S)-21,24-dihydroxy-5',6',11,13,22-pentamethylspiro[3,7,19-trioxatetracyclo[15.6.1.14,8.020,24]pentacosa-10,14,16,22-tetraene-6,2'-oxane]-2-one",316.15,1,CC1CCC2(CC3CC(O2)CC=C(CC(C=CC=C4COC5C4(C(C=C(C5O)C)C(=O)O3)O)C)C)OC1C,0,0,0,0
"Benzenamine, N-propyl-",359.95,1,CCCNc1ccccc1,0,0,0,0
ethyl 2-bromobenzoate,383.25,1,CCOC(=O)c1ccccc1Br,0,0,0,0
"2,3-Pentanedione",292.85,1,CCC(=O)C(C)=O,0,0,0,0
"3,5-Heptanedione",336.55,1,CCC(=O)CC(=O)CC,0,0,0,0
1-ethylimidazole,352.05,1,CCn1ccnc1,0,0,0,0
1-(2-hydroxypropylamino)propan-2-ol,399.15,1,CC(O)CNCC(C)O,0,0,0,0
dimethyl (E)-2-chlorobut-2-enedioate,364.65,1,COC(=O)/C=C(/Cl)C(=O)OC,0,0,0,0
"Benzaldehyde, 3,4-dichloro-",375.15,1,O=Cc1ccc(Cl)c(Cl)c1,0,0,0,0
m-CHLORONITROBENZENE,400.1,1,O=[N+]([O-])c1cccc(Cl)c1,0,0,0,0
"Phenol, 4-(1,1-dimethylethyl)-2,6-dinitro-",382.45,1,CC(C)(C)c1cc([N+](=O)[O-])c(O)c([N+](=O)[O-])c1,0,0,0,0
"Tyrosine, 3-carboxy-, DL-",520.15,1,NC(Cc1ccc(O)c(C(=O)O)c1)C(=O)O,0,0,0,0
"propane-1,3-dithiol",332.15,1,C(CS)CS,0,0,0,0
"2-Propenoic acid, isodecyl ester",367.45,1,C=CC(=O)OCCCCCCCC(C)C,0,0,0,1
3-chloro-4-methylaniline,373.15,1,CC1=C(C=C(C=C1)N)Cl,0,0,0,0
"Fluoranthene, 3-(chloromethyl)-",474.35,1,ClCc1ccc2c3c(cccc13)-c1ccccc1-2,0,0,0,0
2-butoxyethyl acetate,344.15,1,CCCCOCCOC(=O)C,0,0,0,0
alpha-Bromo-2-nitrotoluene,393.35,1,O=[N+]([O-])c1ccccc1CBr,0,0,0,0
"3-Octanol, 3,6-dimethyl-",368.15,1,CCC(C)CCC(C)(O)CC,0,0,0,0
"2-Propenoic acid, phenylmethyl ester",388.65,1,C=CC(=O)OCc1ccccc1,0,0,0,1
"butyl 2,2,2-trichloroacetate",346.05,1,CCCCOC(=O)C(Cl)(Cl)Cl,0,0,0,0
Flavone ,444.25,1,O=c1cc(-c2ccccc2)oc2ccccc12,0,0,0,0
"4-Piperidinecarboxylic acid, 1-methyl-4-phenyl-, ethyl ester",384.75,1,CCOC(=O)C1(c2ccccc2)CCN(C)CC1,0,0,0,1
"Silane, dichloroethenylmethyl-",277.55,1,C[SiH2]C=C(Cl)Cl,1,1,0,0
"(2,2-dimethyl-3-prop-2-enoyloxypropyl) prop-2-enoate",388.15,1,CC(C)(COC(=O)C=C)COC(=O)C=C,0,0,0,0
"3,5-dimethylheptan-4-ol",342.95,1,CCC(C)C(O)C(C)CC,0,0,0,0
"1,6-Octadiene, 7-methyl-3-methylene-",317.55,1,C=CC(=C)CCC=C(C)C,0,0,0,0
"Benzenemethanol, alpha-(aminomethyl)-4-hydroxy-",445.15,1,NCC(O)c1ccc(O)cc1,0,0,0,0
"2,3-bis[8-[3-[(3-pentyloxiran-2-yl)methyl]oxiran-2-yl]octanoyloxy]propyl 8-[3-[(3-pentyloxiran-2-yl)methyl]oxiran-2-yl]octanoate",580.15,1,CCCCCC1C(O1)CC2C(O2)CCCCCCCC(=O)OCC(COC(=O)CCCCCCCC3C(O3)CC4C(O4)CCCCC)OC(=O)CCCCCCCC5C(O5)CC6C(O6)CCCCC,0,0,0,0
4-decanone,344,1,CCCC(CCCCCC)=O,0,0,0,0
"Phosphorothioic acid, S-1,2-dichlorovinyl O,O-diethyl ester",399.05,1,CCOP(=O)(OCC)SC(Cl)=CCl,0,0,0,1
"diethyl 2,2-bis(prop-2-enyl)propanedioate",379.878,1,C=CCC(CC=C)(C(=O)OCC)C(=O)OCC,0,0,0,0
"Acetamide, N,N-dibutyl-2-fluoro-",391.45,1,CCCCN(CCCC)C(=O)CF,0,0,0,0
n-TRIDECYLBENZENE,438,1,CCCCCCCCCCCCCc1ccccc1,0,0,0,0
benzo[f]quinoline,439.15,1,C1=CC=C2C(=C1)C=CC3=C2C=CC=N3,0,0,0,0
"Phenol, 2,4,6-tribromo-",382.85,1,Oc1c(Br)cc(Br)cc1Br,0,0,0,0
"Acetoacetic acid, 2-chloro-, ethyl ester (8CI)",323.15,1,CCOC(=O)C(Cl)C(C)=O,0,0,0,1
2-methoxypropyl acetate,298.15,1,CC(COC(=O)C)OC,0,0,0,0
"Benzonitrile, 3,5-diiodo-4-hydroxy-",397.85,1,N#Cc1cc(I)c(O)c(I)c1,0,0,0,0
"1,2-Cyclohexanedicarboxylic acid, cis-",473.45,1,O=C(O)[C@H]1CCCC[C@H]1C(=O)O,0,0,0,1
"benzene-1,2-diol",400.15,1,C1=CC=C(C(=C1)O)O,0,0,0,0
"Isocyanic acid, (alpha,alpha,alpha-trifluoro-o-tolyl) ester",342.15,1,O=C=Nc1ccccc1C(F)(F)F,0,0,0,1
vinylacetate,265,1,C(=C)CC(=O)[O-],0,0,0,0
2-methyldecane,323,1,CC(C)CCCCCCCC,0,0,0,0
3-iodo-1-propene,289,1,ICC=C,0,0,0,0
"1-Butene, 2,3,4-trichloro-",364.85,1,C=C(Cl)C(Cl)CCl,0,0,0,0
"1,4-dichloro-2-iodobenzene",367.05,1,Clc1ccc(Cl)c(I)c1,0,0,0,0
1-methoxy-2-methylbenzene,324.15,1,COc1ccccc1C,0,0,0,0
"L-Cysteine, S-ethyl- (9CI)",401.85,1,CCSC[C@H](N)C(=O)O,0,0,0,0
"(E)-1,3-dichloroprop-1-ene",300.95,1,Cl/C=C/CCl,0,0,0,0
1-chloro-5-fluoropentane,310.05,1,FCCCCCCl,0,0,0,0
"Benzoic acid, 4-amino-, butyl ester",457.75,1,CCCCOC(=O)c1ccc(N)cc1,0,0,0,1
"2,3-diphenylpropan-1-ol",407.55,1,OCC(Cc1ccccc1)c1ccccc1,0,0,0,0
"3H-Indole, 2,3,3-trimethyl-",355.95,1,CC1=Nc2ccccc2C1(C)C,0,0,0,0
3-picoline,309,1,N1=CC(=CC=C1)C,0,0,0,0
"Piperidine, 1-(2-((4-chlorophenyl)phenylmethoxy)ethyl)- (9CI)",483.35,1,Clc1ccc(C(OCCN2CCCCC2)c2ccccc2)cc1,0,0,0,0
7-methyloctan-4-one,330.75,1,CCCC(=O)CCC(C)C,0,0,0,0
"Benzene, 1-bromo-2-nitro-",360.95,1,O=[N+]([O-])c1ccccc1Br,0,0,0,0
(2-chloroacetyl) 2-chloroacetate,355.95,1,O=C(CCl)OC(=O)CCl,0,0,0,0
"Methanesulfonic acid, 1-methylethyl ester",377.15,1,CC(C)OS(C)(=O)=O,0,0,0,1
"2,2,3,3-tetramethylbutane",273,1,CC(C)(C(C)(C)C)C,0,0,0,0
"2-[(2-chlorophenyl)methyl]-4,4-dimethyl-1,2-oxazolidin-3-one",257.15,1,CC1(CON(C1=O)CC2=CC=CC=C2Cl)C,0,0,0,0
3-(trifluoromethyl)benzoic acid,376.05,1,O=C(O)c1cccc(C(F)(F)F)c1,0,0,0,1
"Benzimidazole, 4,7-dichloro-2-(trifluoromethyl)-",427.95,1,FC(F)(F)c1nc2c(Cl)ccc(Cl)c2[nH]1,0,0,0,0
"2-Naphthalenamine, 1-(2-(4-nitrophenyl)diazenyl)-",558.95,1,Nc1ccc2ccccc2c1N=Nc1ccc([N+](=O)[O-])cc1,0,0,0,0
"2-bromo-1,3,5-trimethylbenzene",369.25,1,Cc1cc(C)c(Br)c(C)c1,0,0,0,0
isopropylamine,241,1,C(C)(C)N,0,0,0,0
"1H-Imidazole, 1-methyl-2-nitro- (9CI)",413.75,1,Cn1ccnc1[N+](=O)[O-],0,0,0,0
"Phenol, 2-chloro-4,5-dimethyl- (9CI)",370.25,1,Cc1cc(O)c(Cl)cc1C,0,0,0,0
"Benzenamine, N,N-dimethyl-4-(phenylazo)-",451.35,1,CN(C)c1ccc(N=Nc2ccccc2)cc1,0,0,0,0
4-Hydroxyquinoline,395.45,1,Oc1ccnc2ccccc12,0,0,0,0
"1H-Isoindole-1,3(2H)-dione",444.05,1,O=C1NC(=O)c2ccccc21,0,0,0,0
"Acetamide, N-(4-(2-(2-hydroxy-5-methylphenyl)diazenyl)phenyl)-",549.85,1,CC(=O)Nc1ccc(N=Nc2cc(C)ccc2O)cc1,0,0,0,0
"1,2-dichloro-4-nitrobenzene",397.15,1,C1=CC(=C(C=C1[N+](=O)[O-])Cl)Cl,0,0,0,0
"1,1,1,3,3,3-hexafluoro-2-(trifluoromethyl)propan-2-ol",278.25,1,OC(C(F)(F)F)(C(F)(F)F)C(F)(F)F,0,0,0,0
"4,7,7-trimethylbicyclo[2.2.1]heptan-2-one",342.45,1,CC12CCC(C(=O)C1)C2(C)C,0,0,0,0
"Phosphorothioic acid, O-(2,4-dichlorophenyl) O,O-diethyl ester",373.15,1,CCOP(=S)(OCC)Oc1ccc(Cl)cc1Cl,0,0,0,1
1-(2-Benzyloxyethyl)-4-phenylpiperidine-4-carboxylic acid ethyl ester,509.85,1,CCOC(=O)C1(c2ccccc2)CCN(CCOCc2ccccc2)CC1,0,0,0,1
methyl(phenyl)silicon,311.65,1,C[Si]c1ccccc1,1,1,0,0
"1,1,3-trimethyl-3-phenyl-2H-indene",429.65,1,CC1(C)CC(C)(c2ccccc2)c2ccccc21,0,0,0,0
"Benzenamine, 4-methoxy-2-nitro-",431.55,1,COc1ccc(N)c([N+](=O)[O-])c1,0,0,0,0
m-Formylbenzonitrile,354.45,1,N#Cc1cccc(C=O)c1,0,0,0,0
"Phenanthrene, 9-ethyl- (8CI)(9CI)",438.25,1,CCc1cc2ccccc2c2ccccc12,0,0,0,0
"1-Propanamine, 3,3'-(1,4-butanediylbis(oxy))bis-",411.75,1,NCCCOCCCCOCCCN,0,0,0,0
"1,4-Benzodioxan, 2-(butylaminomethyl)-8-ethoxy-",426.05,1,CCCCNCC1COc2cccc(OCC)c2O1,0,0,0,0
"1,2,3-trichloro-2-methylpropane",351.55,1,CC(Cl)(CCl)CCl,0,0,0,0
3-chloro-1-propanethiol,316,1,ClCCCS,0,0,0,0
"Toluene, 2,4-dichloro-alpha,alpha,alpha-trifluoro- (8CI)",345.15,1,FC(F)(F)c1ccc(Cl)cc1Cl,0,0,0,0
"Benzenamine, 2-iodo-",385.45,1,Nc1ccccc1I,0,0,0,0
tert-butyl 2-methylprop-2-enoate,300,1,CC(=C)C(=O)OC(C)(C)C,0,0,0,0
cyclohexanecarbonyl chloride,354.45,1,O=C(Cl)C1CCCCC1,0,0,0,0
"1,2-dibromo-1,1,2-trifluoroethane",274.15,1,FC(Br)C(F)(F)Br,0,0,0,0
"Phenol, pentabromo-",440.05,1,Oc1c(Br)c(Br)c(Br)c(Br)c1Br,0,0,0,0
"1,3-Propanediamine, N,N-dibutyl-",376.15,1,CCCCN(CCCC)CCCN,0,0,0,0
"1,2-Bis(ethylthio)ethane",354.35,1,CCSCCSCC,0,0,0,0
2-ethoxyethyl acetate,330.15,1,CCOCCOC(=O)C,0,0,0,0
"9,10-Anthracenedione, 1,2,5,8-tetrahydroxy-",553.75,1,O=C1c2ccc(O)c(O)c2C(=O)c2c(O)ccc(O)c21,0,0,0,0
"Phosphonodithioic acid, methyl-, O-methyl S-phenyl ester",403.35,1,COP(C)(=S)Sc1ccccc1,0,0,0,1
oxaldehyde,493.15,1,C(=O)C=O,0,0,0,0
"[2,3-dinitrooxy-6-(nitrooxymethyl)-5-[3,4,5-trinitrooxy-6-(nitrooxymethyl)oxan-2-yl]oxyoxan-4-yl] nitrate;2-(hydroxymethyl)-6-[4,5,6-trihydroxy-2-(hydroxymethyl)oxan-3-yl]oxyoxane-3,4,5-triol",228.15,1,C(C1C(C(C(C(O1)OC2C(OC(C(C2O)O)O)CO)O)O)O)O.C(C1C(C(C(C(O1)O[N+](=O)[O-])O[N+](=O)[O-])O[N+](=O)[O-])OC2C(C(C(C(O2)CO[N+](=O)[O-])O[N+](=O)[O-])O[N+](=O)[O-])O[N+](=O)[O-])O[N+](=O)[O-],0,0,0,0
"2-Butenoic acid, 3-methyl-, ethyl ester",307.05,1,CCOC(=O)C=C(C)C,0,0,0,1
hex-5-yn-2-one,315.85,1,C#CCCC(C)=O,0,0,0,0
N-ethylformamide,359,1,C(C)NC=O,0,0,0,0
"N,N-bis(2-chloroethyl)-2-oxo-1,3,2λ5-oxazaphosphinan-2-amine",386.15,1,C1CNP(=O)(OC1)N(CCCl)CCCl,0,0,0,0
cyclopropylmethylketone,286,1,C1(CC1)C(=O)C,0,0,0,0
2-methylfuran,243.15,1,CC1=CC=CO1,0,0,0,0
"2,3,4,5,6-pentafluorobenzoyl chloride",322.85,1,O=C(Cl)c1c(F)c(F)c(F)c(F)c1F,0,0,0,0
4-decyne,325,1,CCCC#CCCCCC,0,0,0,0
"1-Dodecanamine, N,N-dimethyl-",380.05,1,CCCCCCCCCCCCN(C)C,0,0,0,0
2-methylpentan-2-ylbenzene,346.15,1,CCCC(C)(C)c1ccccc1,0,0,0,0
2-cyclohexylacetic acid,397.05,1,O=C(O)CC1CCCCC1,0,0,0,1
"propane-1,2-diol",372,1,OCC(C)O,0,0,0,0
"2,4,6,8-tetramethyl-1,3,5,7-tetraoxocane",309.15,1,CC1OC(OC(OC(O1)C)C)C,0,0,0,0
octyl prop-2-enoate,355.15,1,CCCCCCCCOC(=O)C=C,0,0,0,0
"Propane, 1,1'-oxybis(2,3,3,3-tetrachloro-",407.55,1,ClC(COCC(Cl)C(Cl)(Cl)Cl)C(Cl)(Cl)Cl,0,0,0,0
2-chloro-4-methylphenol,359.25,1,Cc1ccc(O)c(Cl)c1,0,0,0,0
"Urea, N-(2,5-dioxo-4-imidazolidinyl)-",505.15,1,NC(=O)NC1NC(=O)NC1=O,0,0,0,0
5-methylhexan-2-one,309.15,1,CC(C)CCC(=O)C,0,0,0,0
"2,2-dimethylpropanedinitrile",350.95,1,CC(C)(C#N)C#N,0,0,0,0
"2,3-di(octanoyloxy)propyl octanoate",450.15,1,CCCCCCCC(=O)OCC(COC(=O)CCCCCCC)OC(=O)CCCCCCC,0,0,0,0
"5,6,7,8-tetrahydroisoquinoline",373.15,1,c1cc2c(cn1)CCCC2,0,0,0,0
4-ethylheptane,288,1,C(C)C(CCC)CCC,0,0,0,0
"Citric acid, tributyl ester, acetate (8CI)",448.25,1,CC(=O)O.CCCCOC(=O)CC(O)(CC(=O)OCCCC)C(=O)OCCCC,0,0,0,1
"2,4-Dinitrotoluene",480.15,1,Cc1ccc([N+](=O)[O-])cc1[N+](=O)[O-],0,0,0,0
"Phenol, 2-(1-methylpropyl)-",385.15,1,CCC(C)c1ccccc1O,0,0,0,0
"2,4-Dimethoxyaniline hydrochloride",397.95,1,COc1ccc(N)c(OC)c1.Cl,0,0,0,0
"Acrylamide, N-(hydroxymethyl)-2-methyl- (6CI,8CI)",412.15,1,C=C(C)C(=O)NCO,0,0,0,0
"Carbanilic acid, 3,4-dichloro-, methyl ester",379.55,1,COC(=O)Nc1ccc(Cl)c(Cl)c1,0,0,0,1
2-ethylcyclohexanone,332,1,C(C)C1C(CCCC1)=O,0,0,0,0
"3(2H)-Isothiazolone, 2-methyl-",337.45,1,Cn1sccc1=O,0,0,0,0
"3-methyl-1,3-benzothiazole-2-thione",408.75,1,Cn1c(=S)sc2ccccc21,0,0,0,0
"Bicyclo(2.2.1)heptan-2-ol, 1,7,7-trimethyl-, (1R,2R,4R)-rel-",347.15,1,CC1(C)[C@@H]2CC[C@@]1(C)[C@H](O)C2,0,0,0,0
"1,3-Propanediol, 2-amino-2-methyl-",382.85,1,CC(N)(CO)CO,0,0,0,0
1-chlorodecane,356,1,ClCCCCCCCCCC,0,0,0,0
"3,4-dimethylheptane",288,1,CC(CC)C(CCC)C,0,0,0,0
"(1Z,3Z)-cycloocta-1,3-diene",308.15,1,C1CCC=CC=CC1,0,0,0,0
Hex-2-yn-1-ol,340.95,1,CCCC#CCO,0,0,0,0
"Phosphoramidodithioic acid, butyl-, O-ethyl S-phenyl ester",451.75,1,CCCCNP(=S)(OCC)Sc1ccccc1,0,0,0,1
N-butyl-N-phenylacetamide,414.15,1,CCCCN(C1=CC=CC=C1)C(=O)C,0,0,0,0
"3,4-dihydrochromen-2-one",403.15,1,C1CC(=O)OC2=CC=CC=C21,0,0,0,0
1-ethyl-2-isopropylbenzene,331,1,CC(C)c1ccccc1C,0,0,0,0
"1,2,4-Trihydroxybenzene",307.35,1,Oc1ccc(O)c(O)c1,0,0,0,0
ethyl 3-oxobutanoate,330.15,1,CCOC(=O)CC(=O)C,0,0,0,0
"2,4-dichloroaniline",388.15,1,C1=CC(=C(C=C1Cl)Cl)N,0,0,0,0
"1,3-dithiolane",336.75,1,C1CSCS1,0,0,0,0
"3-oxatricyclo[7.3.1.05,13]trideca-1(12),5,7,9(13),10-pentaene-2,4-dione",545.15,1,C1=CC2=C3C(=C1)C(=O)OC(=O)C3=CC=C2,0,0,0,0
1-chloro-3-methylbut-2-ene,277.15,1,CC(C)=CCCl,0,0,0,0
[(E)-2-methoxyethenyl]benzene,350.45,1,CO/C=C/c1ccccc1,0,0,0,0
dodecylbenzene,408.15,1,CCCCCCCCCCCCC1=CC=CC=C1,0,0,0,0
"1-Naphthol, 2,4-dichloro- (8CI)",407.15,1,Oc1c(Cl)cc(Cl)c2ccccc12,0,0,0,0
"Guanidine, N,N'-diphenyl-",431.65,1,N=C(Nc1ccccc1)Nc1ccccc1,0,0,0,0
"5H-Furo(3,2-g)(1)benzopyran-5-one, 4,9-dimethoxy-7-methyl-",491.95,1,COc1c2occc2c(OC)c2c(=O)cc(C)oc12,0,0,0,0
hexadecyl(trimethyl)azanium;chloride,294.15,1,CCCCCCCCCCCCCCCC[N+](C)(C)C.[Cl-],0,0,0,0
ALLYL(3-CHLOROPROPYL)DICHLOROSILANE,349.15,1,C=CC[Si](Cl)(Cl)CCCCl,1,1,0,0
"Benzylamine, p-chloro- (8CI)",365.75,1,NCc1ccc(Cl)cc1,0,0,0,0
"9,10-Anthracenedione, 1,4-dihydroxy-2-methyl- (9CI)",539.85,1,Cc1cc(O)c2c(c1O)C(=O)c1ccccc1C2=O,0,0,0,0
"Imidodicarbonimidic diamide, N-(2-methylphenyl)-",475.75,1,Cc1ccccc1NC(=N)NC(=N)N,0,0,0,0
"2,4-ditert-butyl-6-methylphenol",396.15,1,Cc1cc(C(C)(C)C)cc(C(C)(C)C)c1O,0,0,0,0
3-methylnonane,314,1,CC(CC)CCCCCC,0,0,0,0
"1H-Inden-5-ol, 2,3-dihydro-",383.15,1,Oc1ccc2c(c1)CCC2,0,0,0,0
"Furo(2,3-b)quinoline, 4,8-dimethoxy-",457.35,1,COc1c2ccoc2nc2c(OC)cccc12,0,0,0,0
"1,4-Phthalazinedione, 2,3-dihydro-6-nitro-",606.05,1,O=c1[nH][nH]c(=O)c2cc([N+](=O)[O-])ccc12,0,0,0,0
"methyl (4Z,7Z,10Z,13Z,16Z,19Z)-docosa-4,7,10,13,16,19-hexaenoate",366,1,C/C=C\C/C=C\C/C=C\C/C=C\C/C=C\C/C=C\CCCC(=O)OC,0,0,0,0
phenyl acetate,353.15,1,CC(=O)OC1=CC=CC=C1,0,0,0,0
"4H-1-Benzopyran-4-one, 5,7-dihydroxy-2-(4-hydroxyphenyl)- (9CI)",490.15,1,O=c1cc(-c2ccc(O)cc2)oc2cc(O)cc(O)c12,0,0,0,0
pentan-2-yl acetate,305.15,1,CCCC(C)OC(=O)C,0,0,0,0
"Isothiocyanic acid, phenethyl ester",373.15,1,S=C=NCCc1ccccc1,0,0,0,1
3-Amino-p-toluic acid,446.45,1,Cc1ccc(C(=O)O)c(N)c1,0,0,0,1
1-(1-hydroxycyclohexyl)ethanone,369.05,1,CC(=O)C1(O)CCCCC1,0,0,0,0
"1,3,2-Dioxathiane, 5,5-dimethyl-, 2,2-dioxide",368.15,1,CC1(C)COS(=O)(=O)OC1,0,0,0,0
"5H-Dibenzo(b,e)(1,4)diazepine, 8-chloro-11-(4-methyl-1-piperazinyl)-",522.785,1,CN1CCN(C2=Nc3cc(Cl)ccc3Nc3ccccc32)CC1,0,0,0,0
"Cyclohexane, 1,2,4,5-tetramethyl-",313.65,1,CC1CC(C)C(C)CC1C,0,0,0,0
"Benzenemethanol, 4-(acetyloxy)-",399.25,1,CC(=O)Oc1ccc(CO)cc1,0,0,0,0
(3Z)-oct-3-ene,290,1,CCCC/C=C\CC,0,0,0,0
4-iodotoluene,363,1,IC1=CC=C(C)C=C1,0,0,0,0
"Phenol, 2-cyclohexyl-4,6-dinitro-",402.75,1,O=[N+]([O-])c1cc(C2CCCCC2)c(O)c([N+](=O)[O-])c1,0,0,0,0
"Imidodicarbonimidic diamide, N-(2-phenylethyl)-",477.15,1,N=C(N)NC(=N)NCCc1ccccc1,0,0,0,0
propan-2-ylsulfanylbenzene,356.35,1,CC(C)Sc1ccccc1,0,0,0,0
(Z)-2-fluoro-3-phenylprop-2-enoic acid,401.85,1,O=C(O)/C(F)=C/c1ccccc1,0,0,0,1
"Anthraquinone, 1,4,5,7-tetrahydroxy-2-methyl- (8CI)",621.75,1,Cc1cc(O)c2c(c1O)C(=O)c1cc(O)cc(O)c1C2=O,0,0,0,0
"1,2,3-BUTANETRIOL",474,1,CC(O)C(O)CO,0,0,0,0
"Pyridine, 2-phenyl-",386.45,1,c1ccc(-c2ccccn2)cc1,0,0,0,0
"Acetamide, N-chloro-N-9H-fluoren-2-yl-",481.15,1,CC(=O)N(Cl)c1ccc2c(c1)Cc1ccccc1-2,0,0,0,0
"2-Butanone, oxime",333.15,1,CCC(C)=NO,0,0,0,0
"Acetamide, N-(2-(5-methoxy-1H-indol-3-yl)ethyl)- (9CI)",537.15,1,COc1ccc2[nH]cc(CCNC(C)=O)c2c1,0,0,0,0
3-ethylhex-1-ene,274,1,CCCC(CC)C=C,0,0,0,0
"Disulfide, 2-propenyl propyl",327.55,1,C=CCSSCCC,0,0,0,0
"Naphthalene, 2-(1-methylethyl)-",382.85,1,CC(C)c1ccc2ccccc2c1,0,0,0,0
"2,2,4,4-tetramethylpentane",279,1,CC(C)(CC(C)(C)C)C,0,0,0,0
8-methyl-8-azabicyclo[3.2.1]octane,315.35,1,CN1C2CCCC1CC2,0,0,0,0
2-methylhex-1-ene,267,1,CCCCC(=C)C,0,0,0,0
"6-Oxabicyclo(3.1.0)hexane, 2,2'-oxybis-",366.35,1,C1CC2OC2C1OC1CCC2OC12,0,0,0,0
"Ethanol, 2-(2-(2-methylpropoxy)ethoxy)-",365.95,1,CC(C)COCCOCCO,0,0,0,0
4-Methyloxazole,293.65,1,Cc1cocn1,0,0,0,0
"Benzothiazole, 6-amino-",422.35,1,Nc1ccc2ncsc2c1,0,0,0,0
oct-3-yne,295.15,1,CCC#CCCCC,0,0,0,0
"Anthraquinone, 3-methoxy-6-methyl-1,2,8-trihydroxy-",486.65,1,COc1cc2c(c(O)c1O)C(=O)c1c(O)cc(C)cc1C2=O,0,0,0,0
2-methyl-1-benzothiophene,345.55,1,Cc1cc2ccccc2s1,0,0,0,0
"Benzenamine, 4-bromo-",363.55,1,Nc1ccc(Br)cc1,0,0,0,0
"oxiran-2-ylmethyl 2,2-dimethyloctanoate",402.15,1,CCCCCCC(C)(C)C(=O)OCC1CO1,0,0,0,0
5-chloro-1-pentyne,288,1,ClCCCC#C,0,0,0,0
1-methylcycloheptan-1-ol,344.75,1,CC1(O)CCCCCC1,0,0,0,0
"m-Xylene, alpha,alpha'-dichloro-",385.15,1,ClCc1cccc(CCl)c1,0,0,0,0
"Phenetole, m-nitro- (8CI)",401.25,1,CCOc1cccc([N+](=O)[O-])c1,0,0,0,0
3-methylpentanal,290.95,1,CCC(C)CC=O,0,0,0,0
2-ethylhexylacrylate,359,1,C(C)C(COC(C=C)=O)CCCC,0,0,0,0
"3,4-dimethylcyclohexan-1-ol",351.45,1,CC1CCC(O)CC1C,0,0,0,0
"3-Pyrazolidinone, 4,4-dimethyl-1-phenyl-",468.15,1,CC1(C)CN(c2ccccc2)NC1=O,0,0,0,0
"Ethanol, 2-(2-chloroethoxy)-",363.75,1,OCCOCCCl,0,0,0,0
2-hexanol,319,1,CC(CCCC)O,0,0,0,0
"4-methylhepta-1,6-dien-4-ol",341.95,1,C=CCC(C)(O)CC=C,0,0,0,0
"2,3,5-trimethylthiophene",309.35,1,Cc1cc(C)c(C)s1,0,0,0,0
1-ethylpyrrole,298.65,1,CCn1cccc1,0,0,0,0
"(1,1'-Biphenyl)-3-ol, 4-amino-",438.75,1,Nc1ccc(-c2ccccc2)cc1O,0,0,0,0
"Benzaldehyde, 2,6-dichloro-",370.55,1,O=Cc1c(Cl)cccc1Cl,0,0,0,0
"Dibenzo(def,mno)chrysene",520.35,1,c1cc2ccc3cc4cccc5ccc6cc(c1)c2c3c6c54,0,0,0,0
2-phenylbutanenitrile,378.15,1,CCC(C#N)c1ccccc1,0,0,0,0