compound,flashpoint,pure substance,smiles,is_silicon,is_metallic,is_tin,is_acid
"N,N-diethylpyridine-3-carboxamide",414.25,1,CCN(CC)C(=O)c1cccnc1,0,0,0,0
N-propan-2-ylpropan-1-amine,274.25,1,CCCNC(C)C,0,0,0,0
2-amino-4-chlorophenol,443.15,1,C1=CC(=C(C=C1Cl)N)O,0,0,0,0
4-ethoxyaniline,389.15,1,CCOC1=CC=C(C=C1)N,0,0,0,0
"Carbamodithioic acid, diethyl-, ethyl ester",365.25,1,CCSC(=S)N(CC)CC,0,0,0,1
"N'-(3-aminopropyl)propane-1,3-diamine",352.15,1,C(CN)CNCCCN,0,0,0,0
"Naphthalene, 2-nitro-",431.85,1,O=[N+]([O-])c1ccc2ccccc2c1,0,0,0,0
dichlorophosphoryloxybenzene,372.25,1,O=P(Cl)(Cl)Oc1ccccc1,0,0,0,0
Difluoroethanol,273.55,1,CC(O)(F)F,0,0,0,0
"1,3-Propanediol, 2,2-bis(bromomethyl)-",451.25,1,OCC(CO)(CBr)CBr,0,0,0,0
bicyclohexyl,365,1,C1(CCCCC1)C1CCCCC1,0,0,0,0
"Acetanilide, 4',4'''-oxybis- (8CI)",562.25,1,CC(=O)Nc1ccc(Oc2ccc(NC(C)=O)cc2)cc1,0,0,0,0
1-iodododecane,386.65,1,CCCCCCCCCCCCI,0,0,0,0
Aminoethylethanol amine,402.15,1,NCCC(O)CN,0,0,0,0
"Propane, 1-butoxy-2,3-epoxy-",328.75,1,CCCCOCC1CO1,0,0,0,0
"Anthraquinone, 1,4-dihydroxy-5,8-bis((2-hydroxyethyl)amino)- (8CI)",684.95,1,O=C1c2c(O)ccc(O)c2C(=O)c2c(NCCO)ccc(NCCO)c21,0,0,0,0
"Hexanoic acid, 6-bromo-",340.15,1,O=C(O)CCCCCBr,0,0,0,1
"1,2-Propanediol, 3-(2-methylphenoxy)-",434.65,1,Cc1ccccc1OCC(O)CO,0,0,0,0
"2H-Benzimidazole-2-thione, 1,3-dihydro-",390.65,1,S=c1[nH]c2ccccc2[nH]1,0,0,0,0
3-ethylthiophene,296,1,C(C)C1=CSC=C1,0,0,0,0
"1,3,5-Triazine-2,4,6(1H,3H,5H)-trione, 1,3,5-tris(2-hydroxyethyl)-",545.45,1,O=c1n(CCO)c(=O)n(CCO)c(=O)n1CCO,0,0,0,0
trans-2-hexenylacetate,331,1,C(=C\CCCC)/CC(=O)[O-],0,0,0,0
"Benzoic acid, 4-(4-acetyl-3-iodophenoxy)-3,5-diiodo-",572.75,1,CC(=O)c1ccc(Oc2c(I)cc(C(=O)O)cc2I)cc1I,0,0,0,1
1-Chloro-3-methylhexane,312.4,1,CCCC(C)CCCl,0,0,0,0
"1,3,5-Triazine-2,4-diamine, 6-chloro-N,N'-diethyl-",448.15,1,CCNc1nc(Cl)nc(NCC)n1,0,0,0,0
"Urea, N,N'-diethyl-N,N'-diphenyl-",423.95,1,CCN(C(=O)N(CC)c1ccccc1)c1ccccc1,0,0,0,0
"Phosphorothioic acid, O,O-diethyl S-(2-(ethylsulfonyl)ethyl) ester",478.75,1,CCOP(=O)(OCC)SCCS(=O)(=O)CC,0,0,0,1
"Methane, dichlorodifluoro-",284.15,1,FC(F)(Cl)Cl,0,0,0,0
p-Anisonitrile (8CI),529.65,1,COc1ccc(C#N)cc1,0,0,0,0
"Phenol, 2-cyclohexyl-4-methyl-",389.85,1,Cc1ccc(O)c(C2CCCCC2)c1,0,0,0,0
"2-Propenoic acid, 2-ethylbutyl ester",328.85,1,C=CC(=O)OCC(CC)CC,0,0,0,1
4-methyl-cyclohexane-methanol,354,1,OCC1CCC(C)CC1,0,0,0,0
"5,6-dimethyl-1-benzofuran",361.85,1,Cc1cc2ccoc2cc1C,0,0,0,0
"Piperidine, 5-ethyl-2-methyl-",317.35,1,CCC1CCC(C)NC1,0,0,0,0
5-ethyl-2-methylheptane,355.15,1,CCC(CC)CCC(C)C,0,0,0,0
ethyl methanesulfonate,373.15,1,CCOS(C)(=O)=O,0,0,0,0
4-(trifluoromethoxy)benzonitrile,355.15,1,N#Cc1ccc(OC(F)(F)F)cc1,0,0,0,0
4-bromobenzonitrile,370.15,1,N#Cc1ccc(Br)cc1,0,0,0,0
"Anthracene, 9-chloro-",452.35,1,Clc1c2ccccc2cc2ccccc12,0,0,0,0
1-methylquinolin-2-one,379.95,1,Cn1c(=O)ccc2ccccc21,0,0,0,0
1-methoxyhexane,294.15,1,CCCCCCOC,0,0,0,0
2-carbonochloridoyloxyethyl carbonochloridate,367.05,1,O=C(Cl)OCCOC(=O)Cl,0,0,0,0
"Benzene, 1-methoxy-4-(1-propenyl)-, (E)-",361.55,1,C/C=C/c1ccc(OC)cc1,0,0,0,0
"Benzene, 1-bromo-4-nitro-",528.15,1,O=[N+]([O-])c1ccc(Br)cc1,0,0,0,0
3-ethyl-4-methylhexane,288,1,C(C)C(CC)C(CC)C,0,0,0,0
"2,3-butanedione",283,1,CC(C(C)=O)=O,0,0,0,0
TRIETHYLCHLOROGERMANE,311.15,1,CC[Ge](Cl)(CC)CC,0,1,0,0
1-bromo-3-fluoropropane,289.55,1,FCCCBr,0,0,0,0
1-methyl-4-propan-2-ylcyclohexane,317.85,1,CC1CCC(C(C)C)CC1,0,0,0,0
ethyl thiocyanate,295.15,1,CCSC#N,0,0,0,0
"N-(butoxymethyl)-2-chloro-N-(2,6-diethylphenyl)acetamide",387.15,1,CCCCOCN(C1=C(C=CC=C1CC)CC)C(=O)CCl,0,0,0,0
"hexane-2,5-dione",352.15,1,CC(=O)CCC(=O)C,0,0,0,0
"Furan, tetrahydrodimethyl-",277.65,1,CC1(C)CCCO1,0,0,0,0
"Isocyanic acid, 3,4-dichlorophenyl ester",383.15,1,O=C=Nc1ccc(Cl)c(Cl)c1,0,0,0,1
4-propylaniline,376,1,C(CC)C1=CC=C(N)C=C1,0,0,0,0
"Benzenemethanol, 2,3,4,5,6-pentafluoro- (9CI)",360.15,1,OCc1c(F)c(F)c(F)c(F)c1F,0,0,0,0
"Urea, (p-chlorophenyl)- (8CI)",391.25,1,NC(=O)Nc1ccc(Cl)cc1,0,0,0,0
4-(3-piperidin-4-ylpropyl)piperidine,405.25,1,C(CC1CCNCC1)CC1CCNCC1,0,0,0,0
TITANIUM METHYLPHENOXIDE,339.15,1,Cc1ccccc1[O-].Cc1ccccc1[O-].Cc1ccccc1[O-].Cc1ccccc1[O-].[Ti+4],0,1,0,0
"2-Penten-1-ol, (2Z)-",323.75,1,CC/C=C\CO,0,0,0,0
2-(chloromethyl)-2-methyloxirane,307.65,1,CC1(CCl)CO1,0,0,0,0
"Hexanoic acid, 2-ethyl-, ethenyl ester",338.15,1,C=COC(=O)C(CC)CCCC,0,0,0,1
butoxymethylbenzene,356.55,1,CCCCOCc1ccccc1,0,0,0,0
"Benzo(b)thiophene-6-carboximidamide, 2-(4-(aminoiminomethyl)phenyl)-",541.65,1,N=C(N)c1ccc2cc(-c3ccc(C=NN)cc3)sc2c1,0,0,0,0
thiepane,324.85,1,C1CCCSCC1,0,0,0,0
"2,2,2-trichloroacetaldehyde",348.15,1,C(=O)C(Cl)(Cl)Cl,0,0,0,0
"2(3H)-Furanone, dihydro-5-phenyl- (8CI)(9CI)",408.65,1,O=C1CCC(c2ccccc2)O1,0,0,0,0
(E)-1-bromobut-1-ene,287.65,1,CC/C=C/Br,0,0,0,0
"cis-1,3-dimethylcyclohexane",279,1,C[C@@H]1C[C@@H](CCC1)C,0,0,0,0
"3,5-Pyrazolidinedione, 1,2-diphenyl-",440.35,1,O=C1CC(=O)N(c2ccccc2)N1c1ccccc1,0,0,0,0
"Benzenamine, 2,3,4-trifluoro-",344.95,1,Nc1ccc(F)c(F)c1F,0,0,0,0
"N,N-diethylaniline",358.15,1,CCN(CC)C1=CC=CC=C1,0,0,0,0
sec-BUTYL-tert-BUTYL ETHER,276,1,CCC(C)OC(C)(C)C,0,0,0,0
"Cyclopentanone, 2-heptyl-",371.75,1,CCCCCCCC1CCCC1=O,0,0,0,0
ACETOXYETHYLDIMETHYLCHLOROSILANE,336.15,1,CC(=O)OCC[Si](C)(C)Cl,1,1,0,0
methyl 2-hydroxy-5-methylbenzoate,371.65,1,COC(=O)c1cc(C)ccc1O,0,0,0,0
"Phosphorothioic acid, O,O-diethyl S-((ethylsulfonyl)methyl) ester",462.85,1,CCOP(=O)(OCC)SCS(=O)(=O)CC,0,0,0,1
"2H-1,4-Benzodiazepin-2-one, 7-bromo-1,3-dihydro-5-(2-pyridinyl)-",523.75,1,O=C1CN=C(c2ccccn2)c2cc(Br)ccc2N1,0,0,0,0
1-chloro-2-methylprop-1-ene,272.15,1,CC(=CCl)C,0,0,0,0
"2-chloro-1,1,1,3,3,3-hexadeuterio-2-(trideuteriomethyl)propane",291.45,1,[2H]C([2H])([2H])C(Cl)(C([2H])([2H])[2H])C([2H])([2H])[2H],0,0,0,0
"1-Tridecanamine, N-tridecyl-",436.05,1,CCCCCCCCCCCCCNCCCCCCCCCCCCC,0,0,0,0
3-bromopentane,304.45,1,CCC(Br)CC,0,0,0,0
"2,2,3-tribromobutane",350.35,1,CC(Br)C(C)(Br)Br,0,0,0,0
"Benzene, 1,1'-(2,2-dichloroethylidene)bis(4-ethyl-",485.25,1,CCc1ccc(C(c2ccc(CC)cc2)C(Cl)Cl)cc1,0,0,0,0
"1,3,5-Triazin-2-amine, 4,6-dichloro-N-(2-chlorophenyl)- (9CI)",505.35,1,Clc1nc(Cl)nc(Nc2ccccc2Cl)n1,0,0,0,0
"Phosphorothioic acid, O-(3-chloro-4-nitrophenyl) O,O-dimethyl ester",448.65,1,COP(=S)(OC)Oc1ccc([N+](=O)[O-])c(Cl)c1,0,0,0,1
"2,4-Oxazolidinedione, 5-ethyl-3,5-dimethyl-",335.05,1,CCC1(C)OC(=O)N(C)C1=O,0,0,0,0
"Phosphoric acid, dimethyl 1,2,2,2-tetrachloroethyl ester",384.35,1,COP(=O)(OC)OC(Cl)C(Cl)(Cl)Cl,0,0,0,1
"Ethane, 2,2-dichloro-1,1-difluoro-1-methoxy-",336.15,1,COC(F)(F)C(Cl)Cl,0,0,0,0
"Benzimidazole, 5-bromo-2-(trifluoromethyl)-",422.55,1,FC(F)(F)c1nc2ccc(Br)cc2[nH]1,0,0,0,0
"Heptanoic acid, 2-propenyl ester",355.35,1,C=CCOC(=O)CCCCCC,0,0,0,1
"Benzenamine, 2,3,5,6-tetrachloro- (9CI)",407.85,1,Nc1c(Cl)c(Cl)cc(Cl)c1Cl,0,0,0,0
"2-Pyridinepropanamine, gamma-(4-bromophenyl)-N,N-dimethyl-",470.65,1,CN(C)CCC(c1ccc(Br)cc1)c1ccccn1,0,0,0,0
5-methyl-2-propan-2-ylphenol,383.15,1,CC1=CC(=C(C=C1)C(C)C)O,0,0,0,0
"1-Hexanol, 2,3-epoxy-2-ethyl-",347.05,1,CCCC1OC1(CC)CO,0,0,0,0
"2,4,6-trimethyl-1,3,5-trioxane",309.15,1,CC1OC(OC(O1)C)C,0,0,0,0
"Cyclohexane, 1,1,3,5-tetramethyl-, trans-",311.25,1,C[C@H]1C[C@H](C)CC(C)(C)C1,0,0,0,0
"Benzene, 1-methyl-2,3-dinitro-",443.35,1,Cc1cccc([N+](=O)[O-])c1[N+](=O)[O-],0,0,0,0
"1,2-Propanedione, 1-phenyl-, 2-oxime",403.85,1,CC(=NO)C(=O)c1ccccc1,0,0,0,0
"Benzoic acid, 4-methoxy-, methyl ester",371.25,1,COC(=O)c1ccc(OC)cc1,0,0,0,1
2-ethenylfuran,278.65,1,C=Cc1ccco1,0,0,0,0
"2H-1-Benzopyran-2-one, 7-methoxy-",411.75,1,COc1ccc2ccc(=O)oc2c1,0,0,0,0
3-methylhexanoate,305.15,1,CCCC(C)CC(=O)[O-],0,0,0,0
"2,2,3-trimethylbutane",249,1,CC(C)(C(C)C)C,0,0,0,0
"Pyridine, 2-(p-chloro-alpha-(2-(dimethylamino)ethyl)benzyl)-",456.15,1,CN(C)CCC(c1ccc(Cl)cc1)c1ccccn1,0,0,0,0
"Phenol, 3,5-dimethoxy- (8CI)(9CI)",351.15,1,COc1cc(O)cc(OC)c1,0,0,0,0
"Androsta-3,5-dien-17-one, 3-(1-pyrrolidinyl)-",458.55,1,C[C@]12CC[C@H]3[C@@H](CC=C4C=C(N5CCCC5)CC[C@@]43C)[C@@H]1CCC2=O,0,0,0,0
"1,4-bis(trifluoromethyl)benzene",294.85,1,FC(F)(F)c1ccc(C(F)(F)F)cc1,0,0,0,0
"Propane, 1,1,2-trichloro-",317.45,1,CC(Cl)C(Cl)Cl,0,0,0,0
2-phenyloxirane,352.15,1,C1C(O1)C2=CC=CC=C2,0,0,0,0
benzylamine,338,1,C(C1=CC=CC=C1)N,0,0,0,0
"9-Acridinamine, 1,2,3,4-tetrahydro- (9CI)",503.65,1,Nc1c2c(nc3ccccc13)CCCC2,0,0,0,0
trichloromethylbenzene,400.15,1,C1=CC=C(C=C1)C(Cl)(Cl)Cl,0,0,0,0
"2(3H)-Benzoxazolone, 5-chloro-",430.65,1,O=c1[nH]c2cc(Cl)ccc2o1,0,0,0,0
"Disulfide, isopropyl 1,2,2-trichloroethyl",368.15,1,CC(C)SSC(Cl)C(Cl)Cl,0,0,0,0
2-Amino-3-nitrophenol,417.95,1,Nc1c(O)cccc1[N+](=O)[O-],0,0,0,0
TITANIUM ISOPROPOXIDE,298.15,1,CC(C)[O-].CC(C)[O-].CC(C)[O-].CC(C)[O-].[Ti+4],0,1,0,0
1-bromo-4-propan-2-ylbenzene,360.45,1,CC(C)c1ccc(Br)cc1,0,0,0,0
"Propionitrile, 3-(methylamino)- (6CI,7CI,8CI)",336.25,1,CNCCC#N,0,0,0,0
"Octanoic acid, 2-propenyl ester",368.15,1,C=CCOC(=O)CCCCCCC,0,0,0,1
IBUPROFEN,436,1,CC(C)Cc1ccc(C(C)C(=O)O)cc1,0,0,0,0
isopropylmethylether,226,1,C(C)(C)OC,0,0,0,0
4-methyl-2-propan-2-ylphenol,371.25,1,Cc1ccc(O)c(C(C)C)c1,0,0,0,0
naphthalen-2-amine,430.15,1,C1=CC=C2C=C(C=CC2=C1)N,0,0,0,0
ethyl2-methylpropanoate,286,1,C(C)OC(C(C)C)=O,0,0,0,0
"2,3,5,6-Tetrafluorohydroquinone",351.25,1,Oc1c(F)c(F)c(O)c(F)c1F,0,0,0,0
"Benzoyl chloride, 3,5-dinitro-",431.95,1,O=C(Cl)c1cc([N+](=O)[O-])cc([N+](=O)[O-])c1,0,0,0,0
"1,3-Benzenediol, 5-(1-hydroxy-2-((1-methylethyl)amino)ethyl)- (9CI)",452.85,1,CC(C)NCC(O)c1cc(O)cc(O)c1,0,0,0,0
"Phosphorodithioic acid, O-methyl S,S-dipropyl ester",404.45,1,CCCSP(=O)(OC)SCCC,0,0,0,1
"Cyclohexanone, 4-(1,1-dimethylethyl)-",369.25,1,CC(C)(C)C1CCC(=O)CC1,0,0,0,0
"9H-Xanthen-9-one, 1,3-dihydroxy-7-methoxy- (9CI)",478.15,1,COc1ccc2oc3cc(O)cc(O)c3c(=O)c2c1,0,0,0,0
"Acetophenone, 4'-amino- (8CI)",367.45,1,CC(=O)c1ccc(N)cc1,0,0,0,0
"1H-Indole-3-acetic acid, 5-hydroxy-",527.55,1,O=C(O)Cc1c[nH]c2ccc(O)cc12,0,0,0,1
"1,2-Ethanediamine, N,N-diethyl-",303.75,1,CCN(CC)CCN,0,0,0,0
"Benzeneacetic acid, 3-nitro- (9CI)",442.95,1,O=C(O)Cc1cccc([N+](=O)[O-])c1,0,0,0,1
1-Chloro-2-methylpentane,298.2,1,CCCC(C)CCl,0,0,0,0
Chloronitromethane,297.85,1,O=[N+]([O-])CCl,0,0,0,0
"1-Hexanol, 2-amino-",373.15,1,CCCCC(N)CO,0,0,0,0
"Acetic acid, trichloro-",339.494,1,O=C(O)C(Cl)(Cl)Cl,0,0,0,1
3-methyl-2-pentanol,314,1,CC(C(C)O)CC,0,0,0,0
"Dodecanoic acid, 2,3-dihydroxypropyl ester",408.75,1,CCCCCCCCCCCC(=O)OCC(O)CO,0,0,0,1
"2,3-dihydroisoindol-1-one",493.35,1,O=C1NCc2ccccc21,0,0,0,0
"1,2,4-trifluorobenzene",277.15,1,Fc1ccc(F)c(F)c1,0,0,0,0
Pent-4-yn-1-ol,329.15,1,C#CCCCO,0,0,0,0
"Ethanone, 1-(4-(1,1-dimethylethyl)-2,6-dimethyl-3,5-dinitrophenyl)-",426.35,1,CC(=O)c1c(C)c([N+](=O)[O-])c(C(C)(C)C)c([N+](=O)[O-])c1C,0,0,0,0
"Glycine, N-(2-mercapto-1-oxopropyl)- (9CI)",479.95,1,CC(S)C(=O)NCC(=O)O,0,0,0,0
2-isopropylaniline,368,1,C(C)(C)C1=C(N)C=CC=C1,0,0,0,0
"2,3,4,6-tetramethylphenol",383.95,1,Cc1cc(C)c(O)c(C)c1C,0,0,0,0
"9H-Fluorene-9,9-dipropanenitrile (9CI)",522.45,1,N#CCCC1(CCC#N)c2ccccc2-c2ccccc21,0,0,0,0
"Acetamide, 2-(diethylamino)-N-(2,6-dimethylphenyl)-",439.15,1,CCN(CC)CC(=O)Nc1c(C)cccc1C,0,0,0,0
1-chloro-2-nitroethane,329.65,1,O=[N+]([O-])CCCl,0,0,0,0
"Chalcone, 2-nitro- (8CI)",478.65,1,O=C(C=Cc1ccccc1[N+](=O)[O-])c1ccccc1,0,0,0,0
"(3,4-dimethylphenyl)-phenylmethanone",426.85,1,Cc1ccc(C(=O)c2ccccc2)cc1C,0,0,0,0
"1,3-Dichloro-2,4,5,6-tetrafluorobenzene",437.15,1,Fc1c(F)c(Cl)c(F)c(Cl)c1F,0,0,0,0
"2,6-dimethylhepta-2,5-dien-4-one",358.15,1,CC(=CC(=O)C=C(C)C)C,0,0,0,0
methyl hex-5-enoate,319,1,C=CCCCC(=O)OC,0,0,0,0
"Acetic acid, trichloro-, isopropyl ester (6CI,7CI,8CI)",336.25,1,CC(C)OC(=O)C(Cl)(Cl)Cl,0,0,0,1
"Sebacic acid, dimethyl ester (8CI)",418.15,1,COC(=O)CCCCCCCCC(=O)OC,0,0,0,1
4-butylphenol,394.65,1,CCCCc1ccc(O)cc1,0,0,0,0
4-Penten-2-ol,298.75,1,C=CCC(C)O,0,0,0,0
"Benzoic acid, 3,5-bis(acetylamino)-2,4,6-triiodo-",598.35,1,CC(=O)Nc1c(I)c(NC(C)=O)c(I)c(C(=O)O)c1I,0,0,0,1
"2,2,3,4,4,4-hexafluorobutan-1-ol",324.85,1,OCC(F)(F)C(F)C(F)(F)F,0,0,0,0
"Propanedinitrile, (phenylmethylene)- (9CI)",411.15,1,N#CC(C#N)=Cc1ccccc1,0,0,0,0
"Nonanedioic acid, bis(2-ethylhexyl) ester",457.75,1,CCCCC(CC)COC(=O)CCCCCCCC(=O)OCC(CC)CCCC,0,0,0,1
"Hexanoic acid, pentyl ester",361.05,1,CCCCCOC(=O)CCCCC,0,0,0,1
9H-Carbazol-2-amine (9CI),523.75,1,Nc1ccc2c(c1)[nH]c1ccccc12,0,0,0,0
"1,1,1,3,3,3-hexafluoro-2-phenylpropan-2-ol",333.15,1,OC(c1ccccc1)(C(F)(F)F)C(F)(F)F,0,0,0,0
2-(ethoxymethyl)oxirane,296.65,1,CCOCC1CO1,0,0,0,0
(S)-6-Chloro-2-methylnonane,346.9,1,CCC[C@H](Cl)CCCC(C)C,0,0,0,0
"Anthrone, 1,8-dihydroxy-3-methoxy-6-methyl-",483.25,1,COc1cc(O)c2c(c1)Cc1cc(C)cc(O)c1C2=O,0,0,0,0
"Phenethyl alcohol, p-nitro-",417.65,1,O=[N+]([O-])c1ccc(CCO)cc1,0,0,0,0
phenanthridine,429.05,1,c1ccc2c(c1)cnc1ccccc12,0,0,0,0
4-chloro-5-methyl-2-propan-2-ylphenol,382.65,1,Cc1cc(O)c(C(C)C)cc1Cl,0,0,0,0
"Carbamic acid, phenyl ester (8CI)(9CI)",432.45,1,NC(=O)Oc1ccccc1,0,0,0,1
"1,3-Dioxolane, 2-ethyl-2-methyl-",286.15,1,CCC1(C)OCCO1,0,0,0,0
thiophene-2-carbonitrile,326.45,1,N#Cc1cccs1,0,0,0,0
"1,3-Propanediamine, N,N,N',N'-tetramethyl-",304.85,1,CN(C)CCCN(C)C,0,0,0,0
"Ethane, 1,1-dichloro-2-(o-chlorophenyl)-2-(p-chlorophenyl)- (8CI)",467.35,1,Clc1ccc(C(c2ccccc2Cl)C(Cl)Cl)cc1,0,0,0,0
trans-2-DECENE,319,1,C/C=C/CCCCCCC,0,0,0,0
undecan-2-one,362.15,1,CCCCCCCCCC(=O)C,0,0,0,0
"2,6-Pyridinedicarboxylic acid",507.35,1,O=C(O)c1cccc(C(=O)O)n1,0,0,0,1
"Pregn-4-ene-3,11,20-trione, 17,21-dihydroxy-",584.35,1,C[C@]12CC(=O)[C@H]3[C@@H](CCC4=CC(=O)CC[C@@]43C)[C@@H]1CC[C@]2(O)C(=O)CO,0,0,0,0
"Benzaldehyde, 4-ethoxy-",348.15,1,CCOc1ccc(C=O)cc1,0,0,0,0
"6-methyl-1,2,3,4-tetrahydronaphthalene",365.45,1,Cc1ccc2c(c1)CCCC2,0,0,0,0
"Benzenesulfinic acid, 4-chloro-",447.05,1,O=S(O)c1ccc(Cl)cc1,0,0,0,1
"2-Propenal, oxime",303.714,1,C=CC=NO,0,0,0,0
4-methylhexan-2-amine,302.05,1,CCC(C)CC(C)N,0,0,0,0
"Aniline, N-ethyl-N-methyl- (8CI)",347.55,1,CCN(C)c1ccccc1,0,0,0,0
TRIETHYLBROMOTIN,372.15,1,CC[Sn](Br)(CC)CC,0,1,1,0
2-methyl-2-propen-1-ol,306,1,CC(CO)=C,0,0,0,0
"(2,6-dimethyl-1,3-dioxan-4-yl) acetate",334.15,1,CC1CC(OC(O1)C)OC(=O)C,0,0,0,0
"2,9-Dimethylpicene",552.25,1,Cc1ccc2ccc3c(ccc4c5cccc(C)c5ccc43)c2c1,0,0,0,0
methyl eicosanoate,386,1,CCCCCCCCCCCCCCCCCCCC(=O)OC,0,0,0,0
"1,3-Propanediol, 2-butyl-2-ethyl-, dicarbamate",489.75,1,CCCCC(CC)(COC(N)=O)COC(N)=O,0,0,0,0
"N,N-Bis(2,2-diethoxyethyl)methylamine",353.35,1,CCOC(CN(C)CC(OCC)OCC)OCC,0,0,0,0
tetradecyl methanoate,433,1,CCCCCCCCCCCCCCOC=O,0,0,0,0
diethyl 2-hexylpropanedioate,395.85,1,CCCCCCC(C(=O)OCC)C(=O)OCC,0,0,0,0
ethyl 2-ethyl-3-oxobutanoate,348.85,1,CCOC(=O)C(CC)C(C)=O,0,0,0,0
"Acetic acid, phenyl-, methyl ester",367.05,1,COC(=O)Cc1ccccc1,0,0,0,1
2-nitrooxyethyl nitrate,488.15,1,C(CO[N+](=O)[O-])O[N+](=O)[O-],0,0,0,0
"Ethanone, 1-(4-pyridinyl)-",360.15,1,CC(=O)c1ccncc1,0,0,0,0
1-ethylpiperidine,291,1,C(C)N1CCCCC1,0,0,0,0
"Propanedioic acid, (acetylamino)-, diethyl ester",418.35,1,CCOC(=O)C(NC(C)=O)C(=O)OCC,0,0,0,1
4-Heptanol,334.95,1,CCCC(O)CCC,0,0,0,0
"Quinoline, 4-nitro-",422.35,1,O=[N+]([O-])c1ccnc2ccccc12,0,0,0,0
methyl 2-methylprop-2-enoate,283.15,1,CC(=C)C(=O)OC,0,0,0,0
"1,8-dimethylnaphthalene",388.45,1,Cc1cccc2cccc(C)c12,0,0,0,0
"Propane, 1,2-dibromo-3-chloro-",350.15,1,ClCC(Br)CBr,0,0,0,0
"7H-Pyrrolo(2,3-d)pyrimidin-4-amine, 2-methyl-N-(phenylmethyl)-",458.45,1,Cc1nc(NCc2ccccc2)c2cc[nH]c2n1,0,0,0,0
pentan-2-one,280.15,1,CCCC(=O)C,0,0,0,0
4-chloro-2-methylaniline,433.15,1,CC1=C(C=CC(=C1)Cl)N,0,0,0,0
"2,2,3,3-tetrafluoropropanoic acid",312.05,1,O=C(O)C(F)(F)C(F)F,0,0,0,1
"Ethanone, 1-(3,3-dimethyloxiranyl)- (9CI)",308.45,1,CC(=O)C1OC1(C)C,0,0,0,0
"Benzene, 2-methoxy-1-(phenylmethoxy)-4-(1-propenyl)-",425.25,1,CC=Cc1ccc(OCc2ccccc2)c(OC)c1,0,0,0,0
2-methyl-1-(2-methylpropylsulfanyl)propane,319.05,1,CC(C)CSCC(C)C,0,0,0,0
trans-2-Phenylcyclohexanol,386.45,1,O[C@@H]1CCCC[C@H]1c1ccccc1,0,0,0,0
"Phenol, 4-chloro-2-(phenylmethyl)-",432.35,1,Oc1ccc(Cl)cc1Cc1ccccc1,0,0,0,0
"1,3-dichloro-2-methylbenzene",355.95,1,Cc1c(Cl)cccc1Cl,0,0,0,0
"9,10-Phenanthrenequinone",518.15,1,O=C1C(=O)c2ccccc2-c2ccccc21,0,0,0,0
"Benzene, 1-(chloromethyl)-2-nitro- (9CI)",385.85,1,O=[N+]([O-])c1ccccc1CCl,0,0,0,0
2-Chloro-5-methylaniline,380.15,1,Cc1ccc(Cl)c(N)c1,0,0,0,0
cis-4-octene,290,1,CCC\C=C/CCC,0,0,0,0
"1,1'-Biphenyl, 4,4'-dinitro-",481.95,1,O=[N+]([O-])c1ccc(-c2ccc([N+](=O)[O-])cc2)cc1,0,0,0,0
"Benzenamine, N-(1-methylethyl)-",360.85,1,CC(C)Nc1ccccc1,0,0,0,0
DIMETHYLALUMINUM CHLORIDE,255.15,1,C[Al](C)Cl,0,1,0,0
"p-Dioxane-2,5-dione, 3,6-dimethyl- (8CI)",423.75,1,CC1OC(=O)C(C)OC1=O,0,0,0,0
2-ethoxyethanol,315,1,C(C)OCCO,0,0,0,0
"4-Pentenoic acid, 2-(2-propenyl)- (9CI)",329.55,1,C=CCC(CC=C)C(=O)O,0,0,0,1
"alpha,alpha,alpha-Trifluoro-3-tolualdehyde",341.45,1,O=Cc1cccc(C(F)(F)F)c1,0,0,0,0
tert-butylacetoacetate,349,1,C(C)(C)(C)OC(CC(=O)C)=O,0,0,0,0
2-Phenanthrenamine (9CI),502.15,1,Nc1ccc2c(ccc3ccccc32)c1,0,0,0,0
5-bromopent-1-ene,304.15,1,C=CCCCBr,0,0,0,0
cycloheptene,267,1,C1CCC=CCC1,0,0,0,0
"1,4-xylene",300.15,1,CC1=CC=C(C=C1)C,0,0,0,0
divinylether,226,1,C(=C)OC=C,0,0,0,0
cis-3-octene,287,1,CC\C=C/CCCC,0,0,0,0
"cyclohexa-1,4-diene",262,1,C1C=CCC=C1,0,0,0,0
2-methylcyclopent-2-en-1-one,326.25,1,CC1=CCCC1=O,0,0,0,0
"1,3,5-triazine",304.25,1,c1ncncn1,0,0,0,0
DINONYLPHENOL,535,1,CCCCCCCCCc1cccc(O)c1CCCCCCCCC,0,0,0,0
"Formic acid, chloro-, phenyl ester (8CI)",352.15,1,O=C(Cl)Oc1ccccc1,0,0,0,1
1-(furan-2-yl)ethanol,307.75,1,CC(O)c1ccco1,0,0,0,0
"9,10-Anthracenedione, 2-methyl-1-nitro- (9CI)",521.85,1,Cc1ccc2c(c1[N+](=O)[O-])C(=O)c1ccccc1C2=O,0,0,0,0
"Carbamodithioic acid, dimethyl-, methyl ester (9CI)",327.05,1,CSC(=S)N(C)C,0,0,0,1
"4-Thiazolidinone, 3-amino-2-thioxo-",389.15,1,NN1C(=O)CSC1=S,0,0,0,0
2-chloropropane,241,1,ClC(C)C,0,0,0,0
4-Hydroxyphenethyl alcohol,416.35,1,OCCc1ccc(O)cc1,0,0,0,0
cyclopropylbenzene,317.05,1,c1ccc(C2CC2)cc1,0,0,0,0
"1,2-Benzenediamine, 4-methyl-",405.25,1,Cc1ccc(N)c(N)c1,0,0,0,0
"3,6-Dinitro-9H-carbazole",551.85,1,O=[N+]([O-])c1ccc2[nH]c3ccc([N+](=O)[O-])cc3c2c1,0,0,0,0
1-ethenyl-4-methylbenzene,325.15,1,CC1=CC=C(C=C1)C=C,0,0,0,0
heptylacetate,340,1,C(CCCCCC)OC(C)=O,0,0,0,0
"N,N-dimethylacetamide",339,1,CN(C(C)=O)C,0,0,0,0
"Benzenamine, 4-methyl-3-nitro-",412.05,1,Cc1ccc(N)cc1[N+](=O)[O-],0,0,0,0
"1,4-Cyclohexadiene-1,2-dicarbonitrile, 4,5-dichloro-3,6-dioxo-",409.45,1,N#CC1=C(C#N)C(=O)C(Cl)=C(Cl)C1=O,0,0,0,0
"1H-Carbazole, 2,3,4,9-tetrahydro- (9CI)",415.25,1,c1ccc2c3c([nH]c2c1)CCCC3,0,0,0,0
ethylbenzene,288.15,1,CCC1=CC=CC=C1,0,0,0,0
"1,2,2-tribromobutane",357.05,1,CCC(Br)(Br)CBr,0,0,0,0
"Butanenitrile, 4-(dichloromethylsilyl)-",365.15,1,N#CCCC[SiH2]C(Cl)Cl,1,1,0,0
"Pyridine, 5-ethenyl-2-methyl-",329.75,1,C=Cc1ccc(C)nc1,0,0,0,0
2-methoxyethyl acetate,317.15,1,CC(=O)OCCOC,0,0,0,0
"Urea, (4-ethoxyphenyl)- (9CI)",407.75,1,CCOc1ccc(NC(N)=O)cc1,0,0,0,0
"Benzene, 1,1'-(1,2-ethenediyl)bis(4-nitro-, (E)-",455.85,1,O=[N+]([O-])c1ccc(/C=C/c2ccc([N+](=O)[O-])cc2)cc1,0,0,0,0
"4,7,7-trimethyl-6-oxabicyclo[3.2.1]oct-3-ene",336.35,1,CC1=CCC2CC1OC2(C)C,0,0,0,0
"1,8-dichlorooctane",391.15,1,ClCCCCCCCCCl,0,0,0,0
"Disiloxane, 1,3-diethenyl-1,1,3,3-tetramethyl-",297.15,1,C=C[Si](C)(C)O[Si](C)(C)C=C,1,1,0,0
"2-Propenal, 2,3,3-trichloro- (9CI)",344.25,1,O=CC(Cl)=C(Cl)Cl,0,0,0,0
"methyl (6Z,9E,12E)-octadeca-6,9,12-trienoate",335,1,CCCCC/C=C/C/C=C/C/C=C\CCCCC(=O)OC,0,0,0,0
"1,2-Benzenediol, 4,5-dichloro-",409.75,1,Oc1cc(Cl)c(Cl)cc1O,0,0,0,0
m-diethylbenzene,324,1,C(C)C1=CC(=CC=C1)CC,0,0,0,0
"1,2-Benzisothiazol-3(2H)-one",350.65,1,O=c1[nH]sc2ccccc12,0,0,0,0
"3,5-Diiodosalicylaldehyde",411.15,1,O=Cc1cc(I)cc(I)c1O,0,0,0,0
1-n-DECYLNAPHTHALENE,458,1,CCCCCCCCCCc1cccc2ccccc12,0,0,0,0
"2-(3-bromophenyl)-1,3-dioxolane",386.15,1,Brc1cccc(C2OCCO2)c1,0,0,0,0
5-methyl-1-hexyne,269,1,C#CCCC(C)C,0,0,0,0
3-(3-hydroxypropoxy)propan-1-ol,397.039,1,OCCCOCCCO,0,0,0,0
"4,6(1H,5H)-Pyrimidinedione, dihydro-2-thioxo-",507.15,1,O=C1CC(=O)NC(=S)N1,0,0,0,0
4-chloro-N-methylaniline,372.55,1,CNc1ccc(Cl)cc1,0,0,0,0
heptylformate,333,1,C(CCCCCC)OC=O,0,0,0,0
2-methylbutyl acetate,308.15,1,CCC(C)COC(C)=O,0,0,0,0
"Maleic anhydride, dihydroxy-, dibenzoate",481.35,1,O=C(O)c1ccccc1.O=C(O)c1ccccc1.O=C1OC(=O)C(O)=C1O,0,0,0,0
13-Oxabicyclo(10.1.0)tridecane,386.15,1,C1CCCCCC2OC2CCCC1,0,0,0,0
1-sec -butyl-4-methylbenzene,338,1,CCC(C)c1ccc(C)cc1,0,0,0,0