compound,flashpoint,pure substance,smiles,is_silicon,is_metallic,is_tin,is_acid
DIISODECYL PHTHALATE,505.4,1,CC(C)CCCCCCCOC(=O)c1ccccc1C(=O)OCCCCCCCC(C)C,0,0,0,0
(E)-1-chlorobut-2-ene,261.15,1,C/C=C/CCl,0,0,0,0
"3,3-Dimethylbutylamine",278.75,1,CC(C)(C)CCN,0,0,0,0
EthylChloroformate,289.15,1,CCOC(=O)Cl,0,0,0,0
"(N,N-Dimethylamino)triethylsilane",299.15,1,CC[Si](CC)(CC)N(C)C,1,1,0,0
"2,6-DIMETHYL-4-HEPTANOL",339,1,CC(C)CC(O)CC(C)C,0,0,0,0
2-(2-methoxyethoxy)ethanol,366.15,1,COCCOCCO,0,0,0,0
"benzene-1,2-dithiol",385.85,1,Sc1ccccc1S,0,0,0,0
DIISOBUTYL PHTHALATE,434.1,1,CC(C)COC(=O)c1ccccc1C(=O)OCC(C)C,0,0,0,0
"hexane-2,5-diol",374,1,CC(O)CCC(C)O,0,0,0,0
2-methyl-2-propanethiol,247,1,CC(C)(C)S,0,0,0,0
"Phenol, 2-methyl-",350.25,1,Cc1ccccc1O,0,0,0,0
non-1-ene,299.15,1,CCCCCCCC=C,0,0,0,0
4methyl2pentene-,238.15,1,CC=CC(C)C,0,0,0,0
pentyl ethanoate,312,1,CCCCCOC(=O)C,0,0,0,0
t-butyl nitrite,250,1,CC(C)(C)ON=O,0,0,0,0
5hexen2one,296.15,1,C=CCCC(C)=O,0,0,0,0
"Oxirane, ((1-methylethoxy)methyl)-",306.45,1,CC(C)OCC1CO1,0,0,0,0
3-ethyl-3-methylpentane,276,1,CCC(C)(CC)CC,0,0,0,0
1-Chlorooctadecane,457.2,1,CCCCCCCCCCCCCCCCCCCl,0,0,0,0
Piperylene,230.15,1,C=CC=CC,0,0,0,0
3methyl1hexene-,267.15,1,C=CC(C)CCC,0,0,0,0
1-chloroheptane,314,1,CCCCCCCCl,0,0,0,0
"2,4,4-trimethylpent-1-ene",267.15,1,C=C(C)CC(C)(C)C,0,0,0,0
"2,4-dimethylpentane",261,1,CC(C)CC(C)C,0,0,0,0
4-METHYL-1-PENTENE,234,1,C=CCC(C)C,0,0,0,0
butylnitrate,309.25,1,CCCCO[N+](=O)[O-],0,0,0,0
Heptanoic acid,388.1,1,CCCCCCC(=O)O,0,0,0,1
1-butanecarboxylic acid,359,1,CCCCC(=O)O,0,0,0,1
2-butenenitrile,293,1,CC=CC#N,0,0,0,0
Ethylnitrate,283.15,1,CCO[N+](=O)[O-],0,0,0,0
"Hexane, 2,4-dimethyl-",276.1,1,CCC(C)CC(C)C,0,0,0,0
ACRYLONITRILE,273.1,1,C=CC#N,0,0,0,0
HeptamethylDisilazane,300.15,1,CN([Si](C)(C)C)[Si](C)(C)C,1,1,0,0
"3,3,4,4-Tetramethylhexane",304,1,CCC(C)(C)C(C)(C)CC,0,0,0,0
TRIMELLITIC acid,550,1,O=C(O)c1ccc(C(=O)O)c(C(=O)O)c1,0,0,0,1
1-TRIDECANOL,394,1,CCCCCCCCCCCCCO,0,0,0,0
2-butyloctan-1-ol,382,1,CCCCCCC(CO)CCCC,0,0,0,0
propyl nitrate,293.15,1,CCCO[N+](=O)[O-],0,0,0,0
2-Chloromethyl-3-trimethylsilyl-1-propene,316.15,1,C=C(CCl)C[Si](C)(C)C,1,1,0,0
Di-n-Octyl phthalate,492.15,1,CCCCCCCCOC(=O)c1ccccc1C(=O)OCCCCCCCC,0,0,0,0
"2,3,3,4-tetramethylhexane",304,1,CCC(C)C(C)(C)C(C)C,0,0,0,0
2-ETHYL-1-HEXENE,279,1,C=C(CC)CCCC,0,0,0,0
m-Toluidine,359.15,1,Cc1cccc(N)c1,0,0,0,0
Diphenyldimethoxysilane,394.15,1,CO[Si](OC)(c1ccccc1)c1ccccc1,1,1,0,0
ISOPROPYL CHLORIDE,238.2,1,CC(C)Cl,0,0,0,0
(4Z)-oct-4-ene,290,1,CCC/C=C\CCC,0,0,0,0
"N,N-dimethylnitrous amide",334.15,1,CN(C)N=O,0,0,0,0
1-iodohexane,340,1,CCCCCCI,0,0,0,0
"4-ethyl-1,2-dimethylbenzene",331,1,CCc1ccc(C)c(C)c1,0,0,0,0
"2,6-DIAMINOTOLUENE",419,1,Cc1c(N)cccc1N,0,0,0,0
benzene,262.15,1,C1=CC=CC=C1,0,0,0,0
diethylenetriamine,370,1,NCCNCCN,0,0,0,0
n-BUTYL BENZOATE,379.1,1,CCCCOC(=O)c1ccccc1,0,0,0,0
1-chlorohexadecane,411.25,1,CCCCCCCCCCCCCCCCCl,0,0,0,0
"1,2cyclohexanedione",357,1,O=C1CCCCC1=O,0,0,0,0
"2,2,4,4,6,8,8-heptamethylnonane",368,1,CC(CC(C)(C)C)CC(C)(C)CC(C)(C)C,0,0,0,0
Hexyltrimethoxysilane,335.15,1,CCCCCC[Si](OC)(OC)OC,1,1,0,0
"2-methylpentane-2,4-diol",366,1,CC(O)CC(C)(C)O,0,0,0,0
1-Hexene,247.2,1,C=CCCCC,0,0,0,0
2iodobutane,301.15,1,CCC(C)I,0,0,0,0
Triisopropylsilane,310.15,1,CC(C)[SiH](C(C)C)C(C)C,1,1,0,0
1-n-PROPYLNAPHTHALENE,387,1,CCCc1cccc2ccccc12,0,0,0,0
"1,3-Propanediamine, N-methyl-",313.15,1,CNCCCN,0,0,0,0
4vinyl1cyclohexene,289.25,1,C=CC1CC=CCC1,0,0,0,0
"1-Butanol, 3-methyl-, formate",295.45,1,CC(C)CCOC=O,0,0,0,0
p-ETHYLPHENOL,373.1,1,CCc1ccc(O)cc1,0,0,0,0
3bromo1trimethylsilyl1propyne,335.15,1,C[Si](C)(C)C#CCBr,1,1,0,0
4-METHYLNONANE,311,1,CCCCCC(C)CCC,0,0,0,0
"3,4,5-Trimethylheptane",304,1,CCC(C)C(C)C(C)CC,0,0,0,0
"3,3-dimethylpentane",254,1,CCC(C)(C)CC,0,0,0,0
 Tetramethyldisilazane,284.15,1,CN([SiH3])[Si](C)(C)C,1,1,0,0
butyl propionate,305,1,CCCCOC(=O)CC,0,0,0,0
2-METHYL-1-NONENE,315,1,C=C(C)CCCCCCC,0,0,0,0
2ethylbutanal,294,1,CCC(C=O)CC,0,0,0,0
1-propanethiol,252,1,CCCS,0,0,0,0
2-FORMYL BENZOIC acid,436,1,O=Cc1ccccc1C(=O)O,0,0,0,1
2-methylcyclohexanone,321,1,CC1CCCCC1=O,0,0,0,0
DichloroAcetaldehyde,333.15,1,O=CC(Cl)Cl,0,0,0,0
2amino2methyl1propanol,340.35,1,CC(C)(N)CO,0,0,0,0
o -diethylbenzene,328.2,1,CCc1ccccc1CC,0,0,0,0
"1,1dimethyl1sila2oxacyclohexane",287.15,1,C[Si]1(C)CCCCO1,1,1,0,0
2-[2-(2-ethoxyethoxy)ethoxy]ethanol,408.15,1,CCOCCOCCOCCO,0,0,0,0
methyl benzoate,356,1,COC(=O)c1ccccc1,0,0,0,0
7-METHYL-1-OCTENE,291,1,C=CCCCCC(C)C,0,0,0,0
n-PROPYL ISOBUTYRATE,302,1,CCCOC(=O)C(C)C,0,0,0,0
Propyltris(dimethylsiloxy)silane,323.15,1,CCC[Si](O[SiH](C)C)(O[SiH](C)C)O[SiH](C)C,1,1,0,0
4bromobiphenyl,417.05,1,Brc1ccc(-c2ccccc2)cc1,0,0,0,0
n-NONADECANE,441,1,CCCCCCCCCCCCCCCCCCC,0,0,0,0
Propionyl chloride,285.15,1,CCC(=O)Cl,0,0,0,0
hexanenitrile,316,1,CCCCCC#N,0,0,0,0
methylacetate,263.15,1,COC(C)=O,0,0,0,0
"2,3,3-trimethyl-1-butene",256,1,C=C(C)C(C)(C)C,0,0,0,0
cis-2-HEXENE,247,1,C/C=C\CCC,0,0,0,0
3ethylheptanal,328.15,1,CCCCC(CC)CC=O,0,0,0,0
Propyl sulfide (8CI),301.45,1,CCCSCCC,0,0,0,0
2nonanol,355.15,1,CCCCCCCC(C)O,0,0,0,0
"2,3dichloro1propanol",366.45,1,OCC(Cl)CCl,0,0,0,0
"2,4dimethyl3ethylpentane",288.15,1,CCC(C(C)C)C(C)C,0,0,0,0
"1,1,3,3-Tetramethyldisiloxane",251.15,1,C[SiH](C)O[SiH](C)C,1,1,0,0
1-methylcyclohexan-1-ol,338,1,CC1(O)CCCCC1,0,0,0,0
DichloromethylMethylDichloroSilane,301.15,1,C[Si](Cl)(Cl)C(Cl)Cl,1,1,0,0
BENZYL FORMATE,355,1,O=COCc1ccccc1,0,0,0,0
ethyl 3-hydroxybutanoate,337.15,1,CCOC(=O)CC(C)O,0,0,0,0
HexaethylDisiloxane,349.15,1,CC[Si](CC)(CC)O[Si](CC)(CC)CC,1,1,0,0
"2,4,4-trimethylpent-1-ene",268,1,CC(=C)CC(C)(C)C,0,0,0,0
PhenylDimethylAcetoxySilane,345.15,1,CC(C)C(=O)O[SiH2]c1ccccc1,1,1,0,0
1-heptadecene,408,1,C=CCCCCCCCCCCCCCCC,0,0,0,0
"1,3-Dioxolane, 2-methyl-",271.15,1,CC1OCCO1,0,0,0,0
Diphenyldichlorosilane,415.15,1,Cl[Si](Cl)(c1ccccc1)c1ccccc1,1,1,0,0
"but-2-ene-1,4-diol",401.15,1,C(C=CCO)O,0,0,0,0
"2,6,6-trimethylbicyclo[3.1.1]heptane",313.15,1,CC1CCC2CC1C2(C)C,0,0,0,0
2ethyl1hexanamine,323,1,CCCCC(CC)CN,0,0,0,0
n-butyl octadecanoate,433,1,CCCCCCCCCCCCCCCCCC(=O)OCCCC,0,0,0,0
n-Propyltrimethoxysilane,298.15,1,CCC[Si](OC)(OC)OC,1,1,0,0
6-METHYL-1-OCTANOL,360,1,CCC(C)CCCCCO,0,0,0,0
"2,3-dimethyl-1,3-butadiene",251,1,C=C(C)C(=C)C,0,0,0,0
decyl formate,373.05,1,CCCCCCCCCCOC=O,0,0,0,0
8-METHYL-1-NONENE,316,1,C=CCCCCCC(C)C,0,0,0,0
1-methylpyrrole,288,1,Cn1cccc1,0,0,0,0
propylcyclopentane,289,1,CCCC1CCCC1,0,0,0,0
3-methylbutylbenzene,338.15,1,CC(C)CCc1ccccc1,0,0,0,0
Cyclohexylmethyldimethoxysilane,343.15,1,CO[SiH](CC1CCCCC1)OC,1,1,0,0
"1-ethyl-2,4-dimethylbenzene",330,1,CCc1ccc(C)cc1C,0,0,0,0
(1E)-prop-1-en-1-ylbenzene,325,1,C/C=C/c1ccccc1,0,0,0,0
Trichloro(Chloromethyl) silane,342.15,1,ClC[Si](Cl)(Cl)Cl,1,1,0,0
Cyanoethylmethyldichlorosilane,333.15,1,C[Si](Cl)(Cl)CCC#N,1,1,0,0
"(1R,3R)-1,3-dimethylcyclohexane",282.55,1,C[C@@H]1CCC[C@@H](C)C1,0,0,0,0
"2,3-dimethylbuta-1,3-diene",251,1,CC(=C)C(=C)C,0,0,0,0
non-2-ene,299.15,1,CCCCCCC=CC,0,0,0,0
oct-2-yne,297.25,1,CC#CCCCCC,0,0,0,0
methylsecbutylether,243,1,CCC(C)OC,0,0,0,0
Pentylsalicylate,405.15,1,CCCCCOc1ccccc1C(=O)[O-],0,0,0,0
PhenylMethylSilane,298.15,1,[SiH3]Cc1ccccc1,1,1,0,0
p-tert-AMYLPHENOL,384,1,CCC(C)(C)c1ccc(O)cc1,0,0,0,0
"1,4-dioxane",285.15,1,C1COCCO1,0,0,0,0
"1,6heptadiene",263,1,C=CCCCC=C,0,0,0,0
AllylPhenylDichloroSilane,349.15,1,C=CC[Si](Cl)(Cl)c1ccccc1,1,1,0,0
octadecane-1-thiol,458.15,1,CCCCCCCCCCCCCCCCCCS,0,0,0,0
CyclopentylTrichloroSilane,350.15,1,Cl[Si](Cl)(Cl)C1CCCC1,1,1,0,0
3methylthiophene,284.15,1,Cc1ccsc1,0,0,0,0
2decene,320.15,1,CC=CCCCCCCC,0,0,0,0
4-METHYL-cis-2-PENTENE,237,1,C/C=C\C(C)C,0,0,0,0
p-tert-BUTYLPHENOL,386,1,CC(C)(C)c1ccc(O)cc1,0,0,0,0
ALLYLTRIMETHOXYSILANE,319.15,1,C=CC[Si](OC)(OC)OC,1,1,0,0
1-Chloro-3-methylbutane,289.2,1,CC(C)CCCl,0,0,0,0
"1,2-dimethyl-3-propylbenzene",345,1,CCCc1cccc(C)c1C,0,0,0,0
1-undecyne,338,1,C#CCCCCCCCCC,0,0,0,0
1dodecanol,400,1,CCCCCCCCCCCCO,0,0,0,0
DIMETHYL ISOPHTHALATE,411.1,1,COC(=O)c1cccc(C(=O)OC)c1,0,0,0,0
Tri-n-propylsilane,316.15,1,CCC[SiH](CCC)CCC,1,1,0,0
AllyloxytrimethylSilane,273.15,1,C=CCO[Si](C)(C)C,1,1,0,0
"2,3,5-trimethylhexane",288,1,CC(C)CC(C)C(C)C,0,0,0,0
prop-1-ene,165.15,1,CC=C,0,0,0,0
1-ethyl-3-propan-2-ylbenzene,335.95,1,CCc1cccc(C(C)C)c1,0,0,0,0
"2,4pentadienylTrimethylSilane",291.15,1,C=CC=CC[Si](C)(C)C,1,1,0,0
3-(Trimethylsilyl)cyclopentene,299.15,1,C[Si](C)(C)C1C=CCC1,1,1,0,0
Tritolyl phosphate,498.15,1,Cc1ccccc1OP(=O)(Oc1ccccc1C)Oc1ccccc1C,0,0,0,0
N-methylformamide,371,1,CNC=O,0,0,0,0
"1,2,4-TRICHLOROBENZENE",378.7,1,Clc1ccc(Cl)c(Cl)c1,0,0,0,0
1-tert -butyl-4-ethylbenzene,349.1,1,CCc1ccc(C(C)(C)C)cc1,0,0,0,0
"2,3dihydro5methylfuran",261,1,CC1=CCCO1,0,0,0,0
t-Butyldimethylchlorosilane,295.15,1,CC(C)(C)[Si](C)(C)Cl,1,1,0,0
n-Heptylmethyldichlorosilane,339.15,1,CCCCCCC[Si](C)(Cl)Cl,1,1,0,0
n-Dodecylmethyldichlorosilane,416.15,1,CCCCCCCCCCCC[Si](C)(Cl)Cl,1,1,0,0
"2,4,4-trimethylhexane",288,1,CCC(C)(C)CC(C)C,0,0,0,0
"1,3,5-triethylbenzene",354.2,1,CCc1cc(CC)cc(CC)c1,0,0,0,0
3-Chloropropyltrimethoxysilane,348.15,1,CO[Si](CCCCl)(OC)OC,1,1,0,0
crotonic acid,361,1,C/C=C/C(=O)O,0,0,0,1
2ethylbenzenamine,364.15,1,CCc1ccccc1N,0,0,0,0
Hexamethyldisilane,272.15,1,C[Si](C)(C)[Si](C)(C)C,1,1,0,0
"Benzaldehyde, 2-methoxy-",390.15,1,COc1ccccc1C=O,0,0,0,0
3-chloroheptane,312.35,1,CCCCC(Cl)CC,0,0,0,0
"Butylamine, 4-(triethoxysilyl)-",378.25,1,CCO[Si](CCCCN)(OCC)OCC,1,1,0,0
cis-3-heptene,264,1,CC/C=C\CCC,0,0,0,0
m-diethylbenzene,324,1,CCc1cccc(CC)c1,0,0,0,0
1cyclopropylethanone,286,1,CC(=O)C1CC1,0,0,0,0
propyl acetate,287.15,1,CCCOC(=O)C,0,0,0,0
pentan-3-ol,303.15,1,CCC(CC)O,0,0,0,0
"(Z)-1,3-dichlorobut-2-ene",300.15,1,CC(=CCCl)Cl,0,0,0,0
hept-2-yne,281.15,1,CC#CCCCC,0,0,0,0
Phthalic anhydride,424.15,1,O=C1OC(=O)c2ccccc21,0,0,0,0
4-methylheptane,279,1,CCCC(C)CCC,0,0,0,0
2-PHENYL-2-PROPANOL,360.1,1,CC(C)(O)c1ccccc1,0,0,0,0
METHYL VINYL ETHER,217.2,1,C=COC,0,0,0,0
"1,2-dichlorobutane",299,1,CCC(Cl)CCl,0,0,0,0
(Z)-2-methyl-3-phenylprop-2-enal,352.15,1,CC(=CC1=CC=CC=C1)C=O,0,0,0,0
1chloroethyltrichlorosilane,288.15,1,CC(Cl)[Si](Cl)(Cl)Cl,1,1,0,0
"1,2,4-trimethylcyclopentane",282.35,1,CC1CC(C)C(C)C1,0,0,0,0
Crotonaldehyde,286.15,1,C/C=C/C=O,0,0,0,0
2propenylAcetate,295.15,1,CC=CCC(=O)[O-],0,0,0,0
1Hpyrazole,355.15,1,c1cn[nH]c1,0,0,0,0
2-propenylcyclopentane,285,1,CC=CC1CCCC1,0,0,0,0
N-hexylhexan-1-amine,368.15,1,CCCCCCNCCCCCC,0,0,0,0
hexadecane-1-thiol,375.15,1,CCCCCCCCCCCCCCCCS,0,0,0,0
2-pentyne,243,1,CC#CCC,0,0,0,0
"cis-1,4-dimethylcyclohexane",279,1,C[C@H]1CC[C@@H](C)CC1,0,0,0,0
Allyldimethylchlorosilane,278.15,1,C=CC[Si](C)(C)Cl,1,1,0,0
Ethyldichlorosilane-,264.15,1,CC[SiH](Cl)Cl,1,1,0,0
AcetoxyTrimethylSilane,277.15,1,CC(=O)O[Si](C)(C)C,1,1,0,0
sec -pentylbenzene,333.8,1,CCCC(C)c1ccccc1,0,0,0,0
Methyldiphenylchlorosilane,411.15,1,C[Si](Cl)(c1ccccc1)c1ccccc1,1,1,0,0
butyl 2-hydroxypropanoate,344.15,1,CCCCOC(=O)C(C)O,0,0,0,0
"Toluene, alpha,alpha,alpha-trifluoro-",285.15,1,FC(F)(F)c1ccccc1,0,0,0,0
m-ETHYLSTYRENE,333,1,C=Cc1cccc(CC)c1,0,0,0,0
n-HEPTYL ACETATE,340,1,CCCCCCCOC(C)=O,0,0,0,0
propyl prop-2-enoate,299.25,1,C=CC(=O)OCCC,0,0,0,0
2-pyridinecarbonitrile,362.15,1,N#Cc1ccccn1,0,0,0,0
3-hexyne,259,1,CCC#CCC,0,0,0,0
Benzylacetate,363.75,1,O=C([O-])CCc1ccccc1,0,0,0,0
Cyclopentanone,299.15,1,O=C1CCCC1,0,0,0,0
"Acetamide, N-(2-hydroxyethyl)-",449.85,1,CC(=O)NCCO,0,0,0,0
cycloheptanol,344,1,OC1CCCCCC1,0,0,0,0
VINYL ACETATE,265,1,C=COC(C)=O,0,0,0,0
methyl octanoate,342,1,CCCCCCCC(=O)OC,0,0,0,0
tertButylFormate,264,1,CC(C)(C)OC=O,0,0,0,0
1fluoroheptane,286,1,CCCCCCCF,0,0,0,0
2-chloropyridine,337.15,1,Clc1ccccn1,0,0,0,0
"3-methyl-1,3-pentadiene",245,1,C=CC(C)=CC,0,0,0,0
n-DECYLBENZENE,380,1,CCCCCCCCCCc1ccccc1,0,0,0,0
Vinylmethylbis (trimethylsiloxy) silane,324.15,1,C=CC[SiH](O[Si](C)(C)C)O[Si](C)(C)C,1,1,0,0
bromocyclopentane,308.15,1,BrC1CCCC1,0,0,0,0
 n-Butylmethyldichlorosilane,303.15,1,CCCC[Si](C)(Cl)Cl,1,1,0,0
1piperazineEthanamine,366.15,1,NCCN1CCNCC1,0,0,0,0
Anisole,325.15,1,COc1ccccc1,0,0,0,0
3-ethyl-3-methylheptane,314,1,CCCCC(C)(CC)CC,0,0,0,0
2-Propanethiol,239.15,1,CC(C)S,0,0,0,0
Allyl glycidyl ether,330.15,1,C=CCOCC1CO1,0,0,0,0
"1,2,3,5-tetramethylbenzene",336,1,Cc1cc(C)c(C)c(C)c1,0,0,0,0
furan,237.594,1,c1ccoc1,0,0,0,0
HexafluoroBenzene,283.15,1,Fc1c(F)c(F)c(F)c(F)c1F,0,0,0,0
"1,2pentadiene-",233.15,1,C=C=CCC,0,0,0,0
"3-Ethyl-2,3,4-trimethylpentane",304,1,CCC(C)(C(C)C)C(C)C,0,0,0,0
Benzoylchloride,345.15,1,O=C(Cl)c1ccccc1,0,0,0,0
"1-ethyl-2,4,5-trimethylbenzene",348.75,1,CCc1cc(C)c(C)cc1C,0,0,0,0
2methyl1butene3yne-,221.15,1,C#CC(=C)C,0,0,0,0
MALONONITRILE,385.1,1,N#CCC#N,0,0,0,0
3-AMINO-1-PROPANOL,352.6,1,NCCCO,0,0,0,0
"Piperidine, 1-methyl-",276.45,1,CN1CCCCC1,0,0,0,0
2methylbenzofuran,340.15,1,Cc1cc2ccccc2o1,0,0,0,0
N-cyclohexylcyclohexanamine,376.15,1,C1CCC(NC2CCCCC2)CC1,0,0,0,0
"Chlorodimethyl(3,3,3-trifluoropropyl) silane",293.15,1,C[Si](C)(Cl)CCC(F)(F)F,1,1,0,0
"(1S,7R)-4-(2-ethylhexyl)-4-azatricyclo[5.2.1.02,6]dec-8-ene-3,5-dione",450.15,1,CCCCC(CC)CN1C(=O)C2C3CC(C2C1=O)C=C3,0,0,0,0
PYRIDAZINE,358.1,1,c1ccnnc1,0,0,0,0
2-acetyloxyethyl acetate,369.15,1,CC(=O)OCCOC(=O)C,0,0,0,0
1-bromopropane,294,1,CCCBr,0,0,0,0
4-undecyne,339,1,CCCC#CCCCCCC,0,0,0,0
oct-1-en-3-ol,341.15,1,C=CC(O)CCCCC,0,0,0,0
Trimethylbromosilane,270.15,1,C[Si](C)(C)Br,1,1,0,0
"Valeraldehyde, 2-methyl- (8CI)",289.85,1,CCCC(C)C=O,0,0,0,0
sec-Amyl acetate,305.15,1,CCCC(C)OC(C)=O,0,0,0,0
Vinyltriacetoxysilane,361.15,1,C=C[Si](OC(C)=O)(OC(C)=O)OC(C)=O,1,1,0,0
hexan-3-ylbenzene,347.35,1,CCCC(CC)c1ccccc1,0,0,0,0
N-ethylacetamide,378.55,1,CCNC(C)=O,0,0,0,0
2methyltetrahydrofuran,262.05,1,CC1CCCO1,0,0,0,0
3ethyl1pentene-,256.15,1,C=CC(CC)CC,0,0,0,0
"Phenol, 3-methyl-",359.261,1,Cc1cccc(O)c1,0,0,0,0
"(1R,2S)-2-methylcyclohexan-1-ol",332.05,1,C[C@H]1CCCC[C@H]1O,0,0,0,0
CyclohexylIsocyanate,322.05,1,O=C=NC1CCCCC1,0,0,0,0
"(6Z,10E,14E,18E)-2,6,10,15,19,23-hexamethyltetracosa-2,6,10,14,18,22-hexaene",383.15,1,CC(=CCCC(=CCCC(=CCCC=C(C)CCC=C(C)CCC=C(C)C)C)C)C,0,0,0,0
3-buten-2-ol,293,1,C=CC(C)O,0,0,0,0
1-ethenylpyrrolidin-2-one,366.15,1,C=CN1CCCC1=O,0,0,0,0
DIISOPENTYLSULFIDE,352,1,CC(C)CCSCCC(C)C,0,0,0,0
3-Methyl-2-butanone,272.1,1,CC(=O)C(C)C,0,0,0,0
DIETHYLENE GLYCOL MONOBUTYL ETHER ACETATE,375.1,1,CCCCOCCOCCOC(C)=O,0,0,0,0
2butoxyethylacetate,344.15,1,CCCCOCCOC(C)=O,0,0,0,0
DICYCLOHEXYL SULFIDE,393,1,C1CCC(SC2CCCCC2)CC1,0,0,0,0
GUAIACOL,355,1,COc1ccccc1O,0,0,0,0
cis-2-OCTENE,294,1,C/C=C\CCCCC,0,0,0,0
2-methylpropan-1-ol,301,1,OCC(C)C,0,0,0,0
ChloromethylMethylDiethoxySilane,311.15,1,CCO[Si](C)(CCl)OCC,1,1,0,0
Trimethylphenylsilane,313.15,1,C[Si](C)(C)c1ccccc1,1,1,0,0
HexylTrifluoroSilane-,266.15,1,CCCCCC[Si](F)(F)F,1,1,0,0
2bromoethyltrichlorosilane,313.15,1,Cl[Si](Cl)(Cl)CCBr,1,1,0,0
1-benzothiophene,335.15,1,c1ccc2sccc2c1,0,0,0,0
Acrylicacid,327.15,1,C=CC(=O)O,0,0,0,1
1-chloro-2-methoxyethane,288.15,1,COCCCl,0,0,0,0
 n-Propylmethyldichlorosilane,300.15,1,CCC[Si](C)(Cl)Cl,1,1,0,0
"3,3-dimethyloctane",316.65,1,CCCCCC(C)(C)CC,0,0,0,0
"trans-1,2-dimethylcyclohexane",280,1,C[C@@H]1CCCC[C@H]1C,0,0,0,0
2-methylpropyl carbonochloridate,300.95,1,CC(C)COC(=O)Cl,0,0,0,0
ISOPROPYL ACETATE,275,1,CC(=O)OC(C)C,0,0,0,0
1-methylethenyl ethanoate,283,1,CC(=C)OC(=O)C,0,0,0,0
"1,3-dioxane",275.15,1,C1COCOC1,0,0,0,0
"Benzenamine, 2,6-diethyl-",396.45,1,CCc1cccc(CC)c1N,0,0,0,0
2-ETHYLHEXYL ACETATE,344.1,1,CCCCC(CC)COC(C)=O,0,0,0,0
Octadecamethyloctasiloxane,417.15,1,C[Si](C)(C)O[Si](C)(C)O[Si](C)(C)O[Si](C)(C)O[Si](C)(C)O[Si](C)(C)O[Si](C)(C)O[Si](C)(C)C,1,1,0,0
2-methoxybutane,244,1,COC(C)CC,0,0,0,0
"(7-chloro-6-bicyclo[3.2.0]hepta-2,6-dienyl) dimethyl phosphate",438.15,1,COP(=O)(OC)OC1=C(C2C1CC=C2)Cl,0,0,0,0
"1,3-diethyl-5-methylbenzene",343,1,CCc1cc(C)cc(CC)c1,0,0,0,0
Dibutylsulfone,416.15,1,CCCCS(=O)(=O)CCCC,0,0,0,0
1methyl1Hindene,338.15,1,CC1C=Cc2ccccc21,0,0,0,0
Trichloro(3-cyanopropyl) Silane,365.15,1,N#CCCC[Si](Cl)(Cl)Cl,1,1,0,0
butyl 3-methylbutanoate,326.15,1,CCCCOC(=O)CC(C)C,0,0,0,0
"2-bromo-1,1-dimethoxyethane",326,1,COC(CBr)OC,0,0,0,0
1-methylsulfanylbutane,293.75,1,CCCCSC,0,0,0,0
2oxolan2yloxolane,362.15,1,C1COC(C2CCCO2)C1,0,0,0,0
Di-t-butylmethylchlorosilane,342.15,1,CC(C)(C)[Si](C)(Cl)C(C)(C)C,1,1,0,0
Diphenylmethylsilane,393.15,1,[SiH3]C(c1ccccc1)c1ccccc1,1,1,0,0
4-ethenylcyclohex-1-ene,289,1,C=CC1CCC=CC1,0,0,0,0
1-ETHYLNAPHTHALENE,384.1,1,CCc1cccc2ccccc12,0,0,0,0
"2,4,6-TRIMETHYLPYRIDINE",330.1,1,Cc1cc(C)nc(C)c1,0,0,0,0
IsopropenylAcetate,288.75,1,C=C(C)CC(=O)[O-],0,0,0,0
"2,6-dimethylhepta-2,5-dien-4-one",352.15,1,CC(C)=CC(=O)C=C(C)C,0,0,0,0
"Benzene, 1-methyl-2-nitro-",379.261,1,Cc1ccccc1[N+](=O)[O-],0,0,0,0
n-OCTYL ACETATE,359.1,1,CCCCCCCCOC(C)=O,0,0,0,0
6methyl3heptanone,318.15,1,CCC(=O)CCC(C)C,0,0,0,0
2-ETHYL-m-XYLENE,331,1,CCc1c(C)cccc1C,0,0,0,0
PhenylTrimethoxySilane,359.15,1,CO[Si](OC)(OC)c1ccccc1,1,1,0,0
hexyl acetate,310.15,1,CCCCCCOC(=O)C,0,0,0,0
DI-sec-BUTYL ETHER,288,1,CCC(C)OC(C)CC,0,0,0,0
MethacryloxymethylTrimethylSilane,318.15,1,C=C(C)C(=O)OC[Si](C)(C)C,1,1,0,0
Iodotrimethylsilane,288.15,1,C[Si](C)(C)I,1,1,0,0
4octyne,291,1,CCCC#CCCC,0,0,0,0
"Octadecanoic acid, ethyl ester",434.15,1,CCCCCCCCCCCCCCCCCC(=O)OCC,0,0,0,1
dodec-1-yne,352.55,1,C#CCCCCCCCCCC,0,0,0,0
2bromovinylTrimethylSilane,288.15,1,C[Si](C)(C)C=CBr,1,1,0,0
"1,2,3,4-tetramethylcyclohexane",313.65,1,CC1CCC(C)C(C)C1C,0,0,0,0
Bis(chloromethyl)tetramethyldisiloxane,346.15,1,C[Si](C)(C)O[Si](C)(CCl)CCl,1,1,0,0
3buten1ol,310.95,1,C=CCCO,0,0,0,0
p-PHENETIDINE,389,1,CCOc1ccc(N)cc1,0,0,0,0
ISOBUTYLAMINE,255.3,1,CC(C)CN,0,0,0,0
1-Chloro-2-ethylbutane,298.2,1,CCC(CC)CCl,0,0,0,0
"1-ethyl-2,3-dimethylbenzene",338,1,CCc1cccc(C)c1C,0,0,0,0
"2,4-Dimethylheptane",288,1,CCCC(C)CC(C)C,0,0,0,0
EthylSilane-,213.15,1,CC[SiH3],1,1,0,0
Aziridine,262.05,1,C1CN1,0,0,0,0
 Diethylmethylchlorosilane,288.15,1,CC[Si](C)(Cl)CC,1,1,0,0
1-iodo-3-methylbenzene,355,1,Cc1cccc(I)c1,0,0,0,0
isopentyl hexanoate,358,1,CCCCCC(=O)OCCC(C)C,0,0,0,0
ethyl nonanoate,367,1,CCCCCCCCC(=O)OCC,0,0,0,0
heptanal,314,1,CCCCCCC=O,0,0,0,0
"2,3,4,4-tetramethylhexane",304,1,CCC(C)(C)C(C)C(C)C,0,0,0,0
"1,2,3-TRIETHYLBENZENE",352,1,CCc1cccc(CC)c1CC,0,0,0,0
Maleic anhydride,375.15,1,O=C1C=CC(=O)O1,0,0,0,0
3chloro1propanethiol,316,1,SCCCCl,0,0,0,0
tridec-1-ene,352.15,1,CCCCCCCCCCCC=C,0,0,0,0
"1,5cyclooctadiene",305,1,C1=CCCC=CCC1,0,0,0,0
butyl acetate,295.15,1,CCCCOC(=O)C,0,0,0,0
2-METHYL-2-PENTENAL,304.1,1,CCC=C(C)C=O,0,0,0,0
4-Methyl cyclohexene,272.15,1,CC1CC=CCC1,0,0,0,0
"2-Butene, 1,4-dichloro-",327.55,1,ClCC=CCCl,0,0,0,0
2butenal,286,1,CC=CC=O,0,0,0,0
methyl 2-hydroxypropanoate,322.15,1,COC(=O)C(C)O,0,0,0,0
Tetradecamethylhexasiloxane,375.15,1,C[Si](C)(C)O[Si](C)(C)O[Si](C)(C)O[Si](C)(C)O[Si](C)(C)O[Si](C)(C)C,1,1,0,0
"2-chloro-1,3-butadiene",253,1,C=CC(=C)Cl,0,0,0,0
"Valeric acid, ethyl ester (8CI)",312.05,1,CCCCC(=O)OCC,0,0,0,1
2-methylbutane-1-thiol,292.55,1,CCC(C)CS,0,0,0,0
QUINALDINE,352.6,1,Cc1ccc2ccccc2n1,0,0,0,0
3-bromopyridine,324.85,1,Brc1cccnc1,0,0,0,0
prop-2-enylcyclopentane,285,1,C=CCC1CCCC1,0,0,0,0
2-(2-hydroxyethylthio)ethanol,433.15,1,OCCSCCO,0,0,0,0
Trimethyl-n-propoxysilane,283.15,1,CCCO[Si](C)(C)C,1,1,0,0
"4,4-dimethylpent-1-ene",261,1,C=CCC(C)(C)C,0,0,0,0
Cyclobutanone,283,1,O=C1CCC1,0,0,0,0
1propyne,185.15,1,C#CC,0,0,0,0
Pyrrole,306,1,c1cc[nH]c1,0,0,0,0
Heptane-1-nitrile,333.65,1,CCCCCCC#N,0,0,0,0
3-methylcyclohexene,270,1,CC1C=CCCC1,0,0,0,0
2-mercaptoethanol,341,1,SCCO,0,0,0,0
"Methionine, L-",412.55,1,CSCC[C@H](N)C(=O)O,0,0,0,0
"1,1-dimethylcyclohexane",280,1,CC1(C)CCCCC1,0,0,0,0
"ethane-1,2-diamine",307.15,1,C(CN)N,0,0,0,0
Diallylphthalate,438.75,1,C=CCOC(=O)c1ccccc1C(=O)OCC=C,0,0,0,0
"1-Pentanamine, N,N-dipentyl-",370.95,1,CCCCCN(CCCCC)CCCCC,0,0,0,0
TITANIUM ETHOXIDE,303.15,1,CC[O-].CC[O-].CC[O-].CC[O-].[Ti+4],0,1,0,0
DI-n-PROPYL DISULFIDE,339.1,1,CCCSSCCC,0,0,0,0
ACETIC ANHYDRIDE,322.6,1,CC(=O)OC(C)=O,0,0,0,0
n-Heptyltrichlorosilane,337.15,1,CCCCCCC[Si](Cl)(Cl)Cl,1,1,0,0
1butyne-,210.15,1,C#CCC,0,0,0,0
"1,3-bis(ethenyl)benzene",347.75,1,C=Cc1cccc(C=C)c1,0,0,0,0
cyclononane,316,1,C1CCCCCCCC1,0,0,0,0
"(2S,6R)-tricyclo[5.2.1.02,6]deca-3,8-diene",305.15,1,C1C=CC2C1C3CC2C=C3,0,0,0,0