compound,flashpoint,pure substance,smiles,is_silicon,is_metallic,is_tin,is_acid
"1,3-Propanediamine, N-(3-aminopropyl)-",391.15,1,NCCCNCCCN,0,0,0,0
"Phenol, 3-nitro-",400.05,1,O=[N+]([O-])c1cccc(O)c1,0,0,0,0
N-sec-butylaniline,366,1,C(C)(CC)NC1=CC=CC=C1,0,0,0,0
2-methyl-1-phenylpropan-2-amine,366.25,1,CC(C)(N)Cc1ccccc1,0,0,0,0
"1,3,5-trimethyl-1,3,5-triazinane",322.55,1,CN1CN(C)CN(C)C1,0,0,0,0
"Urea, 1,3-dicyclohexyl-2-thio-",435.75,1,S=C(NC1CCCCC1)NC1CCCCC1,0,0,0,0
"6-methoxy-1,2,3,4-tetrahydroquinoline",389.65,1,COc1ccc2c(c1)CCCN2,0,0,0,0
N-benzylaniline,425.15,1,c1ccc(CNc2ccccc2)cc1,0,0,0,0
diethylsulfide,263,1,C(C)SCC,0,0,0,0
4-[2-(4-hydroxyphenyl)propan-2-yl]phenol,352.15,1,CC(C)(C1=CC=C(C=C1)O)C2=CC=C(C=C2)O,0,0,0,0
"1,2-dimethylpropyl ethanoate",316,1,CC(=O)OC(C)C(C)C,0,0,0,0
"N,N-dimethyl-N'-phenylmethanimidamide",359.85,1,CN(C)C=Nc1ccccc1,0,0,0,0
"Benzeneacetic acid, 2-phenylethyl ester",418.95,1,O=C(Cc1ccccc1)OCCc1ccccc1,0,0,0,1
"Quinazoline, 4-((2-(dimethylamino)ethyl)amino)-",452.85,1,CN(C)CCNc1ncnc2ccccc12,0,0,0,0
"Acetic acid, phenyl-, p-tolyl ester (6CI,7CI,8CI)",395.45,1,Cc1ccc(OC(=O)Cc2ccccc2)cc1,0,0,0,1
"2-Butanone, 3-ethoxy-1,1-dihydroxy-",372.65,1,CCOC(C)C(=O)C(O)O,0,0,0,0
3-bromoquinoline,393.75,1,Brc1cnc2ccccc2c1,0,0,0,0
"2-Chloro-2,3,3-trimethylbutane",297.5,1,CC(C)(C)C(C)(C)Cl,0,0,0,0
1-chloro-2-(chloromethyl)benzene,364.15,1,C1=CC=C(C(=C1)CCl)Cl,0,0,0,0
"2H-1-Benzopyran-2-one, 6-(beta-D-glucopyranosyloxy)-7-hydroxy-",535.95,1,O=c1ccc2cc(O[C@@H]3O[C@H](CO)[C@@H](O)[C@H](O)[C@H]3O)c(O)cc2o1,0,0,0,0
ethyl N-benzylcarbamate,411.05,1,CCOC(=O)NCc1ccccc1,0,0,0,0
"2-Propenoic acid, 2-(diethylamino)ethyl ester",347.05,1,C=CC(=O)OCCN(CC)CC,0,0,0,1
1-Hydroxy-1-cyclohexanecarbonitrile,385.25,1,N#CC1(O)CCCCC1,0,0,0,0
"Dodecanamide, N-(2-hydroxyethyl)-",475.35,1,CCCCCCCCCCCC(=O)NCCO,0,0,0,0
piperidin-4-ylmethanamine,351.15,1,NCC1CCNCC1,0,0,0,0
"9H-Carbazole, 3-nitro-",498.25,1,O=[N+]([O-])c1ccc2[nH]c3ccccc3c2c1,0,0,0,0
"methyl 2,4-dimethylbenzoate",470.85,1,COC(=O)c1ccc(C)cc1C,0,0,0,0
2-chloroethenylbenzene,331.15,1,C1=CC=C(C=C1)C=CCl,0,0,0,0
"3,5-dimethylphenol",353.15,1,CC1=CC(=CC(=C1)O)C,0,0,0,0
4'-Chlorobiphenyl-4-ylamine,431.05,1,Nc1ccc(-c2ccc(Cl)cc2)cc1,0,0,0,0
"Benzenethiol, 2-amino-",368.95,1,Nc1ccccc1S,0,0,0,0
"4-[[4-(dimethylamino)phenyl]methyl]-N,N-dimethylaniline",484.15,1,CN(C)C1=CC=C(C=C1)CC2=CC=C(C=C2)N(C)C,0,0,0,0
"1,1,2,2,3,3,4,4-octafluoro-1,4-diiodobutane",329.05,1,FC(F)(I)C(F)(F)C(F)(F)C(F)(F)I,0,0,0,0
"Diazene, dimethyl-, 1-oxide (9CI)",282.55,1,CN=[N+](C)[O-],0,0,0,0
"1,3-Dioxolo(4,5-g)furo(2,3-b)quinoline, 9-methoxy-",474.15,1,COc1c2cc3c(cc2nc2occc12)OCO3,0,0,0,0
"9,10-Anthracenedione, 1,3,8-trihydroxy-6-(hydroxymethyl)-",647.55,1,O=C1c2cc(O)cc(O)c2C(=O)c2c(O)cc(CO)cc21,0,0,0,0
2-tert-butylphenol,383.15,1,CC(C)(C)C1=CC=CC=C1O,0,0,0,0
1-iodo-4-methoxybenzene,368.25,1,COc1ccc(I)cc1,0,0,0,0
ACRIDINE,445,1,c1ccc2nc3ccccc3cc2c1,0,0,0,0
"4-Biphenylamine, 2'-methyl-",418.85,1,Cc1ccccc1-c1ccc(N)cc1,0,0,0,0
"2,4,6-trifluoro-1,3,5-triazine",418.15,1,Fc1nc(F)nc(F)n1,0,0,0,0
furan-2-ylmethyl acetate,339.15,1,CC(=O)OCC1=CC=CO1,0,0,0,0
"10H-Phenothiazine-10-propanamine, 2-chloro-N,N-dimethyl-",499.15,1,CN(C)CCCN1c2ccccc2Sc2ccc(Cl)cc21,0,0,0,0
"Benzenemethanol, alpha-methyl-, propanoate",379.15,1,CCC(=O)OC(C)c1ccccc1,0,0,0,0
"1,2-Propanediol, 1-laurate",412.45,1,CCCCCCCCCCCC(=O)OCC(C)O,0,0,0,0
[3-(methoxycarbonylamino)phenyl] N-(3-methylphenyl)carbamate,347.15,1,CC1=CC(=CC=C1)NC(=O)OC2=CC=CC(=C2)NC(=O)OC,0,0,0,0
"2(1H)-Pyrimidinone, 4-amino-1-beta-D-arabinofuranosyl-",556.95,1,Nc1ccn([C@@H]2O[C@H](CO)[C@@H](O)[C@@H]2O)c(=O)n1,0,0,0,0
ethylformate,254,1,C(C)OC=O,0,0,0,0
"[(2R,3S,5R)-3-hydroxy-5-(6-oxo-1H-purin-9-yl)oxolan-2-yl]methyl phosphono hydrogen phosphate",502.15,1,C1C(C(OC1N2C=NC3=C2N=CNC3=O)COP(=O)(O)OP(=O)(O)O)O,0,0,0,0
"Pyridine, 2-(1-(4-methylphenyl)-3-(1-pyrrolidinyl)-1-propenyl)-, (E)-",490.25,1,Cc1ccc(/C(=C\CN2CCCC2)c2ccccn2)cc1,0,0,0,0
"Phosphorothioic acid, O,O-diethyl S-(ethylthio)methyl ester",399.15,1,CCOP(=O)(OCC)SCSCC,0,0,0,1
1-chloro-4-(trifluoromethyl)benzene,320.15,1,C1=CC(=CC=C1C(F)(F)F)Cl,0,0,0,0
"Furan, 2-ethyl-",274.15,1,CCc1ccco1,0,0,0,0
"Ethanol, 2-(ethyl(3-methylphenyl)amino)-",397.15,1,CCN(CCO)c1cccc(C)c1,0,0,0,0
"Ethanesulfonyl chloride, 2-chloro-",349.35,1,O=S(=O)(Cl)CCCl,0,0,0,0
methyl (11E)-octadec-11-enoate,335,1,CCCCCC/C=C/CCCCCCCCCC(=O)OC,0,0,0,0
1-nitro-3-(trifluoromethyl)benzene,374.15,1,C1=CC(=CC(=C1)[N+](=O)[O-])C(F)(F)F,0,0,0,0
"2,3-dimethylpentan-1-ol",334.15,1,CCC(C)C(C)CO,0,0,0,0
"9,10-Anthracenedione, 1,5-dihydroxy-",514.85,1,O=C1c2cccc(O)c2C(=O)c2cccc(O)c21,0,0,0,0
"Carbamothioic acid, methyl(3-methylphenyl)-, O-2-naphthalenyl ester",501.15,1,Cc1cccc(N(C)C(=S)Oc2ccc3ccccc3c2)c1,0,0,0,1
6-methyl-3-propan-2-ylcyclohex-2-en-1-ol,362.95,1,CC(C)C1=CC(O)C(C)CC1,0,0,0,0
"Acetamide, 2,2-dichloro-",377.45,1,NC(=O)C(Cl)Cl,0,0,0,0
2-[butan-2-ylsulfanyl(ethoxy)phosphoryl]sulfanylbutane,402.15,1,CCC(C)SP(=O)(OCC)SC(C)CC,0,0,0,0
propanoate,325.15,1,CCC(=O)[O-],0,0,0,0
"2-Cyclopenten-1-one, 3-methyl-2-pentyl-",383.15,1,CCCCCC1=C(C)CCC1=O,0,0,0,0
"2,6-Dichlorobenzoyl chloride",380.55,1,O=C(Cl)c1c(Cl)cccc1Cl,0,0,0,0
"2,5-dihydrothiophene 1,1-dioxide",386.15,1,C1C=CCS1(=O)=O,0,0,0,0
"2H-1-Benzopyran-2-one, 7-(2H-naphtho(1,2-d)triazol-2-yl)-3-phenyl-",626.75,1,O=c1oc2cc(-n3nc4ccc5ccccc5c4n3)ccc2cc1-c1ccccc1,0,0,0,0
"Phenol, 4-bromo-2,5-dichloro-",391.35,1,Oc1cc(Cl)c(Br)cc1Cl,0,0,0,0
"Cyclohexene, 4-methyl-1-(1-methylethyl)-",316.45,1,CC1CC=C(C(C)C)CC1,0,0,0,0
"Benzene, 1-chloro-4-(methylthio)-",363.15,1,CSc1ccc(Cl)cc1,0,0,0,0
"Pyridine, 3-chloro-",338.15,1,Clc1cccnc1,0,0,0,0
"1,3-dimethylcyclohex-1-ene",285,1,CC1CCCC(=C1)C,0,0,0,0
Isopropyl disulfide (8CI),291.45,1,CC(C)SSC(C)C,0,0,0,0
1-iodooctane,368,1,ICCCCCCCC,0,0,0,0
"dipentyl benzene-1,2-dicarboxylate",461.95,1,CCCCCOC(=O)c1ccccc1C(=O)OCCCCC,0,0,0,0
"Benzaldehyde, 2-hydroxy-3-nitro-",372.35,1,O=Cc1cccc([N+](=O)[O-])c1O,0,0,0,0
ethanol,285,1,C(C)O,0,0,0,0
2-Decyn-1-ol,331.55,1,CCCCCCCC#CCO,0,0,0,0
"didecyl benzene-1,2-dicarboxylate",505.15,1,CCCCCCCCCCOC(=O)C1=CC=CC=C1C(=O)OCCCCCCCCCC,0,0,0,0
"Guanidine, 1,1,3,3-tetramethyl- (8CI)",333.15,1,CN(C)C(=N)N(C)C,0,0,0,0
1-chloro-2-(2-chloroethoxy)ethane,328.15,1,C(CCl)OCCCl,0,0,0,0
"Phenol, 3,4-dichloro-",382.25,1,Oc1ccc(Cl)c(Cl)c1,0,0,0,0
"Heptanoic acid, 7-chloro-",390.15,1,O=C(O)CCCCCCCl,0,0,0,1
"2,2,3,3,3-pentafluoropropanoic acid",283.45,1,O=C(O)C(F)(F)C(F)(F)F,0,0,0,1
TITANIUM TETRAKIS(ETHYLMETHYLAMIDE),283.15,1,CC[N-]C.CC[N-]C.CC[N-]C.CC[N-]C.[Ti+4],0,1,0,0
"1,2-Benzenedicarboxylic acid, dicyclohexyl ester",479.75,1,O=C(OC1CCCCC1)c1ccccc1C(=O)OC1CCCCC1,0,0,0,1
3-ethyl-4-methylhexane,288,1,CCC(CC)C(C)CC,0,0,0,0
"1,3-butanediol",382,1,C(CC(C)O)O,0,0,0,0
"3-Pyridinecarboxylic acid, 2-((2,6-dimethylphenyl)amino)- (9CI)",465.25,1,Cc1cccc(C)c1Nc1ncccc1C(=O)O,0,0,0,1
1H-Indol-5-ol (9CI),434.55,1,Oc1ccc2[nH]ccc2c1,0,0,0,0
"Propane, 1-iodo-2-methyl-",285.15,1,CC(C)CI,0,0,0,0
"1,4-diethoxybenzene",361.35,1,CCOc1ccc(OCC)cc1,0,0,0,0
"Benzenamine, 2,4,5-trimethyl- (9CI)",268.15,1,Cc1cc(C)c(N)cc1C,0,0,0,0
"Formic acid, oxydi-, diethyl ester",342.55,1,CCOC(=O)OC(=O)OCC,0,0,0,1
"1,4-diisopropylbenzene",349,1,C(C)(C)C1=CC=C(C=C1)C(C)C,0,0,0,0
2-methyl-1-butene,226,1,CC(=C)CC,0,0,0,0
"Cyclohexanamine, N-cyclohexyl-N-methyl-",383.15,1,CN(C1CCCCC1)C1CCCCC1,0,0,0,0
Perylene,501.75,1,c1cc2cccc3c4cccc5cccc(c(c1)c23)c54,0,0,0,0
3-methylbutanoyl chloride,298.65,1,CC(C)CC(=O)Cl,0,0,0,0
"Ethanol, 2-(2-ethylbutoxy)-",331.25,1,CCC(CC)COCCO,0,0,0,0
"Benzaldehyde, m-fluoro- (8CI)",329.85,1,O=Cc1cccc(F)c1,0,0,0,0
DL-Lysine,415.366,1,NCCCCC(N)C(=O)O,0,0,0,0
"6-methylheptyl 2-(2,4-dichlorophenoxy)acetate",321.15,1,CC(C)CCCCCOC(=O)COC1=C(C=C(C=C1)Cl)Cl,0,0,0,0
2-bromothiophene,320.202,1,Brc1cccs1,0,0,0,0
"3,3,4,4,5,5,6,6,7,7,8,8,8-tridecafluorooct-1-ene",293.15,1,C=CC(F)(F)C(F)(F)C(F)(F)C(F)(F)C(F)(F)C(F)(F)F,0,0,0,0
"Phenol, 4,4'-isopropylidenebis(2,6-dibromo- (8CI)",479.75,1,CC(C)(c1cc(Br)c(O)c(Br)c1)c1cc(Br)c(O)c(Br)c1,0,0,0,0
methane,85.15,1,C,0,0,0,0
"alpha,alpha,alpha-Trifluoro-p-cresol",353.25,1,Oc1ccc(C(F)(F)F)cc1,0,0,0,0
benzenesulfonyl fluoride,360.35,1,O=S(=O)(F)c1ccccc1,0,0,0,0
"Benzene, 1-(chloromethyl)-4-nitro-",403.85,1,O=[N+]([O-])c1ccc(CCl)cc1,0,0,0,0
"Phenol, 2,2'-thiobis(6-tert-butyl-4-chloro-",502.75,1,CC(C)(C)c1cc(Cl)cc(Sc2cc(Cl)cc(C(C)(C)C)c2O)c1O,0,0,0,0
1-Aminocyclopentane-1-carboxylic acid,381.85,1,NC1(C(=O)O)CCCC1,0,0,0,1
"1,2-Benzenediamine, 3-methyl-",404.25,1,Cc1cccc(N)c1N,0,0,0,0
"2,2-dibromopropane",274.85,1,CC(C)(Br)Br,0,0,0,0
"Indoline, 1-nitroso-",409.05,1,O=NN1CCc2ccccc21,0,0,0,0
1-bromopentadecane,406.85,1,CCCCCCCCCCCCCCCBr,0,0,0,0
"Phosphonic acid, bis(1-methylethyl) ester",365.95,1,CC(C)O[PH](=O)OC(C)C,0,0,0,1
"Phenol, 2,4-bis(1,1-dimethylethyl)-",388.15,1,CC(C)(C)c1ccc(O)c(C(C)(C)C)c1,0,0,0,0
"Propanedioic acid, 2-propenyl-, diethyl ester",365.15,1,CC=CC(C(=O)OCC)C(=O)OCC,0,0,0,1
"Benzamide, N-hydroxy-",474.15,1,O=C(NO)c1ccccc1,0,0,0,0
4-bromo-1H-pyrazole,381.15,1,Brc1cn[nH]c1,0,0,0,0
Hydrazinecarboxaldehyde,385.15,1,NNC=O,0,0,0,0
"4-Piperidinone, 2,2,6,6-tetramethyl-",346.35,1,CC1(C)CC(=O)CC(C)(C)N1,0,0,0,0
diallyldisulfide,335,1,C(C=C)SSCC=C,0,0,0,0
"Methane, nitrotribromo-",321.25,1,O=[N+]([O-])C(Br)(Br)Br,0,0,0,0
"1,3-dichloro-5-methylbenzene",352.35,1,Cc1cc(Cl)cc(Cl)c1,0,0,0,0
butanoate,345.15,1,CCCC(=O)[O-],0,0,0,0
"Phosphorodithioic acid, S-hydroxymethyl O,O-dimethyl ester, acetate",383.05,1,CC(=O)O.COP(=S)(OC)SCO,0,0,0,1
2-(2-aminoethoxy)ethanol,400.15,1,C(COCCO)N,0,0,0,0
2-Chloro-6-methylheptane,322,1,CC(C)CCCC(C)Cl,0,0,0,0
2-methoxyacetyl chloride,301.15,1,COCC(=O)Cl,0,0,0,0
"1,1-diethoxypropane",285.95,1,CCOC(CC)OCC,0,0,0,0
"2,3-Dioxabicyclo(2.2.2)oct-5-ene, 1-methyl-4-(1-methylethyl)- (9CI)",329.05,1,CC(C)C12C=CC(C)(CC1)OO2,0,0,0,0
"Imidazole, 1-benzyl- (8CI)",414.45,1,c1ccc(Cn2ccnc2)cc1,0,0,0,0
[5-(hydroxymethyl)oxolan-2-yl]methanol,385.15,1,OCC1CCC(CO)O1,0,0,0,0
"6H-Pyrido(4,3-b)carbazole, 5,11-dimethyl-",500.25,1,Cc1c2ccncc2c(C)c2c1[nH]c1ccccc12,0,0,0,0
"4-Biphenylacetic acid, 2'-fluoro-",457.85,1,O=C(O)Cc1ccc(-c2ccccc2F)cc1,0,0,0,1
"Benzaldehyde, 3-methoxy-",383.15,1,COc1cccc(C=O)c1,0,0,0,0
7-Hydroxyquinoline,416.22,1,Oc1ccc2cccnc2c1,0,0,0,0
"Phenol, 4-ethoxy-",397.15,1,CCOc1ccc(O)cc1,0,0,0,0
"(1,1'-Biphenyl)-4,4'-diamine, N4,N4,N4',N4'-tetramethyl-",446.55,1,CN(C)c1ccc(-c2ccc(N(C)C)cc2)cc1,0,0,0,0
9H-Fluoren-4-amine (9CI),477.95,1,Nc1cccc2c1-c1ccccc1C2,0,0,0,0
"2,6,10-Dodecatrien-1-ol, 3,7,11-trimethyl-",385.65,1,CC(C)=CCCC(C)=CCCC(C)=CCO,0,0,0,0
"bis(2-methoxyethyl) benzene-1,2-dicarboxylate",483.15,1,COCCOC(=O)C1=CC=CC=C1C(=O)OCCOC,0,0,0,0
[2-hydroxy-3-[(Z)-octadec-9-enoyl]oxypropyl] (Z)-octadec-9-enoate,462.35,1,CCCCCCCC/C=C\CCCCCCCC(=O)OCC(O)COC(=O)CCCCCCC/C=C\CCCCCCCC,0,0,0,0
4-methyl-N-(4-methylphenyl)aniline,440.75,1,Cc1ccc(Nc2ccc(C)cc2)cc1,0,0,0,0
2-(trifluoromethyl)phenol,338.15,1,Oc1ccccc1C(F)(F)F,0,0,0,0
"Butanenitrile, 4-(triethoxysilyl)-",388.85,1,CCO[Si](CCCC#N)(OCC)OCC,1,1,0,0
"Benzenesulfonamide, 4-amino-N-methyl- (9CI)",444.15,1,CNS(=O)(=O)c1ccc(N)cc1,0,0,0,0
"2,3-dimethyl-1-pentene",256,1,CC(=C)C(CC)C,0,0,0,0
Phenylethanolamine,425.15,1,NCC(O)c1ccccc1,0,0,0,0
"1,4-Benzenediol, 2,5-bis(1,1-dimethylpropyl)-",435.85,1,CCC(C)(C)c1cc(O)c(C(C)(C)CC)cc1O,0,0,0,0
pentanal,281,1,C(CCCC)=O,0,0,0,0
"1-methyl-4-(propan-2-yl)cyclohexa-1,3-diene",319,1,CC1=CC=C(CC1)C(C)C,0,0,0,0
"2-Propanol, 1,1,1-trichloro-2-methyl-",334.95,1,CC(C)(O)C(Cl)(Cl)Cl,0,0,0,0
"Theophylline, 7-(2-((alpha-methylphenethyl)amino)ethyl)-",567.95,1,CC(Cc1ccccc1)NCCn1cnc2c1c(=O)n(C)c(=O)n2C,0,0,0,0
benzenesulfonylbenzene,499.95,1,O=S(=O)(c1ccccc1)c1ccccc1,0,0,0,0
"Phenol, 2-methyl-4,6-dinitro-",422.35,1,Cc1cc([N+](=O)[O-])cc([N+](=O)[O-])c1O,0,0,0,0
"2,4-Pentanedione, 3-chloro-",285.35,1,CC(=O)C(Cl)C(C)=O,0,0,0,0
oxepan-2-one,382,1,O=C1CCCCCO1,0,0,0,0
"Cyclohexanecarboxaldehyde, 3,3,5-trimethyl-",336.95,1,CC1CC(C=O)CC(C)(C)C1,0,0,0,0
sec-BUTYL ACRYLATE,299.6,1,C=CC(=O)OC(C)CC,0,0,0,0
2-butoxyethanol,335,1,C(CCC)OCCO,0,0,0,0
Sebacoyl chloride (8CI),424.55,1,O=C(Cl)CCCCCCCCC(=O)Cl,0,0,0,0
"Toluene, 4-chloro-alpha,alpha,alpha-trifluoro-3-nitro- (8CI)",374.817,1,O=[N+]([O-])c1cc(C(F)(F)F)ccc1Cl,0,0,0,0
1-chloro-4-fluorobutane,283.05,1,FCCCCCl,0,0,0,0
"Decanedioic acid, dihydrazide",538.55,1,NNC(=O)CCCCCCCCC(=O)NN,0,0,0,1
2-(2-aminoethylamino)ethanol,375.15,1,C(CNCCO)N,0,0,0,0
"9,10-Anthracenedione, 4,8-diamino-1,5-dihydroxy-2-(4-methoxyphenyl)-",668.15,1,COc1ccc(-c2cc(N)c3c(c2O)C(=O)c2c(N)ccc(O)c2C3=O)cc1,0,0,0,0
"Ethanone, 1-(1H-imidazol-1-yl)-",361.15,1,CC(=O)n1ccnc1,0,0,0,0
"Acetamide, N-(4'-amino(1,1'-biphenyl)-4-yl)- (9CI)",508.45,1,CC(=O)Nc1ccc(-c2ccc(N)cc2)cc1,0,0,0,0
"trans-2,4-dimethylcyclopentanone",315,1,C[C@@H]1C(C[C@H](C1)C)=O,0,0,0,0
n-HEXADECYLBENZENE,466,1,CCCCCCCCCCCCCCCCc1ccccc1,0,0,0,0
"1,4-DICYANO-2-BUTENE",418,1,N#CCC=CCC#N,0,0,0,0
"Benzoic acid, 3-amino-2,5-dichloro-",452.65,1,Nc1cc(Cl)cc(C(=O)O)c1Cl,0,0,0,1
2-Dibenzofuranamine,450.15,1,Nc1ccc2oc3ccccc3c2c1,0,0,0,0
"2,4,6-trimethyl-1,3,5-trithiane",375.75,1,CC1SC(C)SC(C)S1,0,0,0,0
10-Undecen-1-ol,366.45,1,C=CCCCCCCCCCO,0,0,0,0
"1,4-Naphthoquinone, 5-hydroxy- (8CI)",474.45,1,O=C1C=CC(=O)c2c(O)cccc21,0,0,0,0
"Diethylenetriamine, 4-(2-aminoethyl)- (6CI,7CI,8CI)",367.65,1,NCCN(CCN)CCN,0,0,0,0
2-methylpropyl heptanoate,356.05,1,CCCCCCC(=O)OCC(C)C,0,0,0,0
"dihexyl benzene-1,2-dicarboxylate",450.15,1,CCCCCCOC(=O)C1=CC=CC=C1C(=O)OCCCCCC,0,0,0,0
2-propylphenol,366,1,C(CC)C1=C(C=CC=C1)O,0,0,0,0
"2,5-ditert-butylfuran",345.25,1,CC(C)(C)c1ccc(C(C)(C)C)o1,0,0,0,0
methyl (E)-2-methylbut-2-enoate,308.15,1,C/C=C(\C)C(=O)OC,0,0,0,0
TETRAMETHOXYGERMANE,307.15,1,CO[Ge](OC)(OC)OC,0,1,0,0
(2R)-2-[(2R)-oxiran-2-yl]oxirane,319.15,1,C1C(O1)C2CO2,0,0,0,0
2-aminobutan-1-ol,355.35,1,CCC(N)CO,0,0,0,0
ethyl 2-phenylacetate,372.15,1,CCOC(=O)CC1=CC=CC=C1,0,0,0,0
"Phosphonothioic acid, ethyl-, O-(4-chlorophenyl) O-ethyl ester",416.85,1,CCOP(=S)(CC)Oc1ccc(Cl)cc1,0,0,0,1
cis-3-hexene,248,1,CC\C=C/CC,0,0,0,0
2-ethyl-1H-pyrrole,335.35,1,CCc1ccc[nH]1,0,0,0,0
dipentylether,330,1,C(CCCC)OCCCCC,0,0,0,0
1-ethenoxy-2-methylpropane,264.15,1,CC(C)COC=C,0,0,0,0
"1,4-Benzenediamine, N-cyclohexyl-N'-phenyl-",549.05,1,c1ccc(Nc2ccc(NC3CCCCC3)cc2)cc1,0,0,0,0
BORON ALLYLOXIDE,304.15,1,C=CCOCC=C.[B],0,1,0,0
(E)-3-phenylprop-2-enenitrile,378.35,1,N#C/C=C/c1ccccc1,0,0,0,0
"1,2,4-Triazin-3-amine, 6-(2-(5-nitro-2-furanyl)ethenyl)- (9CI)",525.95,1,Nc1ncc(C=Cc2ccc([N+](=O)[O-])o2)nn1,0,0,0,0
"2,2,3-trimethylhexane",288,1,CC(C)(C(CCC)C)C,0,0,0,0
(E)-but-2-enoyl chloride,308.15,1,C/C=C/C(=O)Cl,0,0,0,0
6-methyl-1H-indene,346.45,1,Cc1ccc2c(c1)CC=C2,0,0,0,0
3-Hexyn-1-ol,336.45,1,CCC#CCCO,0,0,0,0
"Toluene, 4-chloro-3,5-dinitro-alpha,alpha,alpha-trifluoro-",399.15,1,O=[N+]([O-])c1cc(C(F)(F)F)cc([N+](=O)[O-])c1Cl,0,0,0,0
"1,2-Benzenediamine, 3-nitro- (9CI)",450.55,1,Nc1cccc([N+](=O)[O-])c1N,0,0,0,0
"Pentanoic acid, 5-amino-4-oxo-",407.45,1,NCC(=O)CCC(=O)O,0,0,0,1
"2,3,3a,4,5,6,7,7a-octahydro-1H-indole",332.55,1,C1CCC2NCCC2C1,0,0,0,0
2-chloro-1-propanol,324,1,ClC(CO)C,0,0,0,0
quinoline,374,1,N1=CC=CC2=CC=CC=C12,0,0,0,0
2-METHYL-DODECAN-1-OL,404,1,CCCCCCCCCCC(C)CO,0,0,0,0
diphenylether,388,1,C1(=CC=CC=C1)OC1=CC=CC=C1,0,0,0,0
"2,3-dimethylaniline",369,1,CC1=C(N)C=CC=C1C,0,0,0,0
"Acetic acid, mercapto-, 2-ethylhexyl ester",410.55,1,CCCCC(CC)COC(=O)CS,0,0,0,1
"Propane, 1,1,1,2,3,3,3-heptachloro-2-fluoro-",379.35,1,FC(Cl)(C(Cl)(Cl)Cl)C(Cl)(Cl)Cl,0,0,0,0
1-methyl-3-(4-methylphenyl)benzene,398.95,1,Cc1ccc(-c2cccc(C)c2)cc1,0,0,0,0
"Tridecanedioic acid, dimethyl ester",413.95,1,COC(=O)CCCCCCCCCCCC(=O)OC,0,0,0,1
"2,3-dimethylhex-2-ene",288.75,1,CCCC(C)=C(C)C,0,0,0,0
"Phosphoric acid, 2-ethylhexyl diphenyl ester",495.15,1,CCCCC(CC)COP(=O)(Oc1ccccc1)Oc1ccccc1,0,0,0,1
"9-Tricosene, (9Z)-",482.05,1,CCCCCCCC/C=C\CCCCCCCCCCCCC,0,0,0,0
3-decanol,372,1,CCC(CCCCCCC)O,0,0,0,0
"Oxacycloheptadec-8-en-2-one, (8Z)-",441.35,1,O=C1CCCCC/C=C\CCCCCCCCO1,0,0,0,0
3-Nitro-p-cresol,398.35,1,Cc1ccc(O)cc1[N+](=O)[O-],0,0,0,0
methyl-,350.95,1,[CH3],0,0,0,0
"Phenol, m-anilino- (8CI)",420.55,1,Oc1cccc(Nc2ccccc2)c1,0,0,0,0
4-methoxycarbonylbenzoic acid,409.15,1,COC(=O)c1ccc(C(=O)O)cc1,0,0,0,1
"p-Toluidine, N-butyl-N-ethyl-alpha,alpha,alpha-trifluoro-2,6-dinitro-",450.15,1,CCCCN(CC)c1c([N+](=O)[O-])cc(C(F)(F)F)cc1[N+](=O)[O-],0,0,0,0
2-Butyrolactone,371.15,1,CCC1OC1=O,0,0,0,0
bromo(methoxy)methane,299.85,1,COCBr,0,0,0,0
"9,10-Anthracenedione, 1,8-dihydroxy-4,5-dinitro-",554.05,1,O=C1c2c(O)ccc([N+](=O)[O-])c2C(=O)c2c([N+](=O)[O-])ccc(O)c21,0,0,0,0
phenyl(pyridin-3-yl)methanone,423.15,1,O=C(c1ccccc1)c1cccnc1,0,0,0,0
hexyl prop-2-enoate,341.15,1,CCCCCCOC(=O)C=C,0,0,0,0
"1,2-propanediamine",306,1,C(C(C)N)N,0,0,0,0
"p-Dioxane, 2,3-dichloro-, trans-",367.05,1,Cl[C@@H]1OCCO[C@H]1Cl,0,0,0,0
"Pyridine, 3-(1-nitroso-2-piperidinyl)-, (S)- (9CI)",456.95,1,O=NN1CCCC[C@H]1c1cccnc1,0,0,0,0
1-chloro-4-ethylbenzene,335,1,ClC1=CC=C(C=C1)CC,0,0,0,0
1-Chloroeicosane,437.2,1,CCCCCCCCCCCCCCCCCCCCCl,0,0,0,0
1-bromododecane,383.15,1,CCCCCCCCCCCCBr,0,0,0,0
"1,4-diethylbenzene",329.15,1,CCC1=CC=C(C=C1)CC,0,0,0,0
"2H-1,4-Benzodiazepin-2-one, 1,3-dihydro-1-methyl-7-nitro-5-phenyl-",553.85,1,CN1C(=O)CN=C(c2ccccc2)c2cc([N+](=O)[O-])ccc21,0,0,0,0
heptanoicanhydride,403,1,C(CCCCCC)(=O)OC(CCCCCC)=O,0,0,0,0
4-methyl-2-pentanol,314,1,CC(CC(C)O)C,0,0,0,0
3-methylphenylacetate,358,1,CC=1C=C(C=CC1)CC(=O)[O-],0,0,0,0
"Acetic acid, (2,4-dichlorophenoxy)-, methyl ester",397.25,1,COC(=O)COc1ccc(Cl)cc1Cl,0,0,0,1
1-[(2-methylpropan-2-yl)oxy]propan-2-ol,317.15,1,CC(COC(C)(C)C)O,0,0,0,0
"2,6-Octadien-1-ol, 3,7-dimethyl-, (2Z)-",372.65,1,CC(C)=CCC/C(C)=C\CO,0,0,0,0
"2-(3,4,5-trihydroxyphenyl)chromenylium-3,5,7-triol;chloride",466.15,1,C1=C(C=C(C(=C1O)O)O)C2=C(C=C3C(=CC(=CC3=[O+]2)O)O)O.[Cl-],0,0,0,0
"Isocyanic acid, p-isopropenyl-alpha,alpha-dimethylbenzyl ester",357.15,1,C=C(C)c1ccc(C(C)(C)N=C=O)cc1,0,0,0,1
"2(1H)-Quinolinone, 4-hydroxy-",410.65,1,O=c1cc(O)c2ccccc2[nH]1,0,0,0,0
"Benzaldehyde, 4-methoxy-",382.05,1,COc1ccc(C=O)cc1,0,0,0,0
"Benzenemethanamine, N-ethyl-",339.15,1,CCNCc1ccccc1,0,0,0,0
p-MENTHANE HYDROPEROXIDE,404,1,CC1CCC(C(C)C)CC1.[O-]O,0,0,0,0
"Acetaldehyde, phenyl- (8CI)",362.35,1,O=CCc1ccccc1,0,0,0,0
cyclohexylmethylether,294,1,C1(CCCCC1)OC,0,0,0,0
ethyl 2-acetylpentanoate,355.55,1,CCCC(C(C)=O)C(=O)OCC,0,0,0,0
2-ethylquinoline,371.85,1,CCc1ccc2ccccc2n1,0,0,0,0
"2(3H)-Furanone, 5-ethyldihydro-",371.45,1,CCC1CCC(=O)O1,0,0,0,0
"Phenol, 4,4'-methylenedi- (8CI)",466.05,1,Oc1ccc(Cc2ccc(O)cc2)cc1,0,0,0,0
butylbutanoate,322,1,C(CCC)OC(CCC)=O,0,0,0,0
"(4,7,7-trimethyl-3-bicyclo[2.2.1]heptanyl) acetate",362.05,1,CC(=O)OC1CC2CCC1(C)C2(C)C,0,0,0,0
"Pentane, 3-nitro-",319.25,1,CCC(CC)[N+](=O)[O-],0,0,0,0
2-piperazin-1-ylethanamine,366.15,1,C1CN(CCN1)CCN,0,0,0,0
"Anthraquinone, 1,4-diamino-2,3-dihydro- (8CI)",453.85,1,NC1=C2C(=O)c3ccccc3C(=O)C2=C(N)CC1,0,0,0,0
"Isocyanic acid, methylenedi-p-phenylene ester",427.15,1,O=C=Nc1ccc(Cc2ccc(N=C=O)cc2)cc1,0,0,0,1
cyclohexanecarbaldehyde,314.15,1,O=CC1CCCCC1,0,0,0,0
ethylbenzene,294,1,C(C)C1=CC=CC=C1,0,0,0,0
"bis(7-methyloctyl) cyclohexane-1,2-dicarboxylate",497.15,1,CC(C)CCCCCCOC(=O)C1CCCCC1C(=O)OCCCCCCC(C)C,0,0,0,0
3-(trifluoromethyl)pyridine,304.25,1,FC(F)(F)c1cccnc1,0,0,0,0
"5-Hepten-2-ol, 2,6-dimethyl-",363.25,1,CC(C)=CCCC(C)(C)O,0,0,0,0
"5,9,14,18-Anthrazinetetrone, 7,16-dichloro-6,15-dihydro-",703.75,1,O=c1c2ccccc2c(=O)c2c1cc(Cl)c1[nH]c3c([nH]c12)c(Cl)cc1c(=O)c2ccccc2c(=O)c13,0,0,0,0
"1H-Benzimidazole, 5,6-dimethyl-2-(trifluoromethyl)- (9CI)",411.55,1,Cc1cc2nc(C(F)(F)F)[nH]c2cc1C,0,0,0,0
"Acetonitrile, dichloro-",309.15,1,N#CC(Cl)Cl,0,0,0,0
"Benzenesulfonamide, 4-amino-N-(6-methoxy-4-pyrimidinyl)-",537.35,1,COc1cc(NS(=O)(=O)c2ccc(N)cc2)ncn1,0,0,0,0
formamide,427.15,1,C(=O)N,0,0,0,0
Tetramethyltetravinylcyclotetrasilane,385,1,C[Si]1([Si]([Si]([Si]1(C=C)C)(C=C)C)(C=C)C)C=C,1,1,0,0
1-(bromomethyl)-4-methylbenzene,371.15,1,CC1=CC=C(C=C1)CBr,0,0,0,0
"1,1,1,2,3,3-hexafluoro-4-methoxybutane",275.15,1,COCC(F)(F)C(F)C(F)(F)F,0,0,0,0