compound,flashpoint,pure substance,smiles,is_silicon,is_metallic,is_tin,is_acid
"Methanone, (2-hydroxy-4-methoxyphenyl)phenyl-",413.65,1,COc1ccc(C(=O)c2ccccc2)c(O)c1,0,0,0,0
"Benzenamine, 6-chloro-2-methyl- (9CI)",372.05,1,Cc1cccc(Cl)c1N,0,0,0,0
"Benzenamine, N-methyl-4-nitro-N-nitroso- (9CI)",457.05,1,CN(N=O)c1ccc([N+](=O)[O-])cc1,0,0,0,0
3-AMINOPROPYLTRIS(METHOXYETHOXYETHOXY)SILANE,341.15,1,COCCOCCO[Si](CCCN)(OCCOCCOC)OCCOCCOC,1,1,0,0
(sulfinylamino)benzene,357.55,1,O=S=Nc1ccccc1,0,0,0,0
"2,2'-Dimethyl-2,2'-azodipropiononitrile",369.75,1,CC(C)(C#N)N=NC(C)(C)C#N,0,0,0,0
"1-Propanol, 3-(dimethylamino)-",309.25,1,CN(C)CCCO,0,0,0,0
Butyrohydrazide,378.05,1,CCCC(=O)NN,0,0,0,0
"but-3-ene-1,2-diol",362.45,1,C=CC(O)CO,0,0,0,0
methylmethacrylate,283,1,COC(C(=C)C)=O,0,0,0,0
2-methyl-4-propan-2-ylphenol,377.25,1,Cc1cc(C(C)C)ccc1O,0,0,0,0
propylmethacrylate,308,1,C(CC)OC(C(=C)C)=O,0,0,0,0
"Benzenamine, 4-nitro-N-phenyl-",458.35,1,O=[N+]([O-])c1ccc(Nc2ccccc2)cc1,0,0,0,0
"Phenol, 4-(1-methylethyl)-",368.45,1,CC(C)c1ccc(O)cc1,0,0,0,0
"pentane-1,5-diol",402.15,1,C(CCO)CCO,0,0,0,0
"4,7-Methanoindan, hexahydro-1,8-diamino-",399.75,1,NC1CCC2C3CCC(C3N)C12,0,0,0,0
dibromo(dichloro)methane,309.35,1,ClC(Cl)(Br)Br,0,0,0,0
3-ethylhexan-3-ol,333.75,1,CCCC(O)(CC)CC,0,0,0,0
"2,3,5,6-Tetrafluoro-4-aminobenzotrifluoride",341.05,1,Nc1c(F)c(F)c(C(F)(F)F)c(F)c1F,0,0,0,0
"Aniline, 2,4,5-trichloro- (8CI)",398.05,1,Nc1cc(Cl)c(Cl)cc1Cl,0,0,0,0
TRIOCTYLPHOSPHINE,420.15,1,CCCCCCCCP(CCCCCCCC)CCCCCCCC,0,0,0,0
4-methylhexan-2-one,304.15,1,CCC(C)CC(C)=O,0,0,0,0
propan-2-yl 2-hydroxypropanoate,330.35,1,CC(C)OC(=O)C(C)O,0,0,0,0
"2,2-dimethylpropyl methanoate",311,1,O=COCC(C)(C)C,0,0,0,0
"1,5-Pentanediol, 2,2,3,3,4,4-hexafluoro-",406.65,1,OCC(F)(F)C(F)(F)C(F)(F)CO,0,0,0,0
"2,2,4,4,6,6,8-heptamethylnonane",383.35,1,CC(C)CC(C)(C)CC(C)(C)CC(C)(C)C,0,0,0,0
"2-Propanol, 1,3-diamino-",370.05,1,NCC(O)CN,0,0,0,0
N-(3-methylphenyl)formamide,440.95,1,Cc1cccc(NC=O)c1,0,0,0,0
1-chloro-3-methoxybenzene,346.45,1,COc1cccc(Cl)c1,0,0,0,0
"Benzenamine, 4-butyl-",374.85,1,CCCCc1ccc(N)cc1,0,0,0,0
"dimethyl benzene-1,2-dicarboxylate",419.15,1,COC(=O)C1=CC=CC=C1C(=O)OC,0,0,0,0
"2,5-DIMETHYL-1,5-HEXADIENE",280,1,C=C(C)CCC(=C)C,0,0,0,0
4-(2-morpholin-4-ylethyl)morpholine,352.75,1,C1CN(CCN2CCOCC2)CCO1,0,0,0,0
N-ethyldimethylamine,237,1,C(C)N(C)C,0,0,0,0
1-[bis(2-hydroxypropyl)amino]propan-2-ol,433.15,1,CC(CN(CC(C)O)CC(C)O)O,0,0,0,0
"Furan, 2-nitro-5-(2-nitroethenyl)-",420.45,1,O=[N+]([O-])C=Cc1ccc([N+](=O)[O-])o1,0,0,0,0
N-BENZYLAMINOMETHYLTRIMETHYLSILANE,389.15,1,C[Si](C)(C)CNCc1ccccc1,1,1,0,0
"2,3-dihydro-1,4-dioxine",298.75,1,C1=COCCO1,0,0,0,0
"Benzenesulfonamide, 2-methyl-",326.65,1,Cc1ccccc1S(N)(=O)=O,0,0,0,0
diethyl (E)-but-2-enedioate,377.15,1,CCOC(=O)C=CC(=O)OCC,0,0,0,0
"p-Cresol, alpha-phenyl- (8CI)",427.35,1,Oc1ccc(Cc2ccccc2)cc1,0,0,0,0
2-(aziridin-1-yl)ethanol,340.15,1,C1CN1CCO,0,0,0,0
"Toluene, o-bromo-alpha,alpha,alpha-trifluoro-",324.85,1,FC(F)(F)c1ccccc1Br,0,0,0,0
"10H-Phenothiazine-10-ethanamine, N,N-diethyl-alpha-methyl-",487.05,1,CCN(CC)C(C)CN1c2ccccc2Sc2ccccc21,0,0,0,0
chloromethylcyclopropane,271.45,1,ClCC1CC1,0,0,0,0
4H-Cyclopenta(def)chrysene,502.65,1,c1ccc2c(c1)cc1c3c2ccc2cccc(c23)C1,0,0,0,0
"N,4-dimethylaniline",345.25,1,CNc1ccc(C)cc1,0,0,0,0
"Phosphorotrithious acid, triethyl ester",399.65,1,CCSP(SCC)SCC,0,0,0,1
"Phosphonothioic acid, methyl-, O-(4-nitrophenyl) O-phenyl ester",482.65,1,CP(=S)(Oc1ccccc1)Oc1ccc([N+](=O)[O-])cc1,0,0,0,1
"2H-1-Benzopyran-2-one, 3-(1-(2-furanyl)-3-oxobutyl)-4-hydroxy-",487.35,1,CC(=O)CC(c1ccco1)c1c(O)c2ccccc2oc1=O,0,0,0,0
"Benzeneethanamine, 4-chloro-alpha,alpha-dimethyl-",400.15,1,CC(C)(N)Cc1ccc(Cl)cc1,0,0,0,0
6-Methylbenzo(def)chrysene,509.85,1,Cc1c2ccccc2c2ccc3cccc4ccc1c2c43,0,0,0,0
o-ethyltoluene,312,1,C(C)C1=C(C)C=CC=C1,0,0,0,0
"Chalcone, 4-(dimethylamino)- (8CI)",434.45,1,CN(C)c1ccc(C=CC(=O)c2ccccc2)cc1,0,0,0,0
"1,1,1,2,2,3,3,4,4,5,5,6,6,7,7-pentadecafluoro-7-iodoheptane",330.25,1,FC(F)(F)C(F)(F)C(F)(F)C(F)(F)C(F)(F)C(F)(F)C(F)(F)I,0,0,0,0
"1,2,4-trichloro-5-(chloromethyl)benzene",400.95,1,ClCc1cc(Cl)c(Cl)cc1Cl,0,0,0,0
"1,2,3,4-tetrabromo-5,6-dimethylbenzene",450.75,1,Cc1c(C)c(Br)c(Br)c(Br)c1Br,0,0,0,0
"Phenol, 4-((4-(acetyloxy)phenyl)cyclohexylidenemethyl)-, acetate (9CI)",527.95,1,CC(=O)Oc1ccc(C(=C2CCCCC2)c2ccc(OC(C)=O)cc2)cc1,0,0,0,0
"Propanoic acid, 2,2,3-trichloro-",361.95,1,O=C(O)C(Cl)(Cl)CCl,0,0,0,1
"3H-1,3-benzothiazol-2-one",444.65,1,O=c1[nH]c2ccccc2s1,0,0,0,0
METHYL ISOPROPYL ETHER,225,1,COC(C)C,0,0,0,0
"(1,1-Biphenyl)-4-acetic acid, alpha-2-butenyl-",597.35,1,CC=CCC(C(=O)O)c1ccc(-c2ccccc2)cc1,0,0,0,1
3-methoxyprop-1-ene,250.15,1,C=CCOC,0,0,0,0
"1,3-Benzodioxole, 5-(oxiranylmethyl)- (9CI)",367.15,1,c1cc2c(cc1CC1CO1)OCO2,0,0,0,0
"N-butan-2-yl-4-tert-butyl-2,6-dinitroaniline",309.15,1,CCC(C)NC1=C(C=C(C=C1[N+](=O)[O-])C(C)(C)C)[N+](=O)[O-],0,0,0,0
"Benzamide, 2-hydroxy-N,N-dimethyl- (9CI)",417.45,1,CN(C)C(=O)c1ccccc1O,0,0,0,0
"Bicyclo(3.1.1)heptane, 6,6-dimethyl-2-methylene-, (1S,5S)-",308.05,1,C=C1CC[C@H]2C[C@@H]1C2(C)C,0,0,0,0
1-Butyn-3-ol,298.75,1,C#CC(C)O,0,0,0,0
"1,2-bis(ethenyl)benzene",335.15,1,C=CC1=CC=CC=C1C=C,0,0,0,0
2-chloro-6-(trichloromethyl)pyridine,373.15,1,C1=CC(=NC(=C1)Cl)C(Cl)(Cl)Cl,0,0,0,0
"2-Naphthalenamine, 1-((2-methylphenyl)azo)-",516.45,1,Cc1ccccc1N=Nc1c(N)ccc2ccccc12,0,0,0,0
"Acetic acid, (4-chlorophenoxy)-",417.55,1,O=C(O)COc1ccc(Cl)cc1,0,0,0,1
"Cyclohexanamine, N-(2-ethylhexyl)- (9CI)",384.95,1,CCCCC(CC)CNC1CCCCC1,0,0,0,0
"Benzene, 1,2,4-tribromo-",393.15,1,Brc1ccc(Br)c(Br)c1,0,0,0,0
2-methylpropanamide,360.85,1,CC(C)C(N)=O,0,0,0,0
"Propene, 1,2-dichloro-",288.85,1,CC(Cl)=CCl,0,0,0,0
"1H-Pyrrolizine-7-methanol, 2,3,5,7a-tetrahydro-1-hydroxy-, (1R-trans)-",434.55,1,OCC1=CCN2CC[C@@H](O)[C@@H]12,0,0,0,0
diethyl 2-acetylbutanedioate,399.25,1,CCOC(=O)CC(C(C)=O)C(=O)OCC,0,0,0,0
"Ethanone, 1-(2-nitrophenyl)-",410.95,1,CC(=O)c1ccccc1[N+](=O)[O-],0,0,0,0
"methyl (2Z)-penta-2,4-dienoate",310,1,COC(=O)/C=C\C=C,0,0,0,0
"Propionic acid, 3-bromo-, ethyl ester (8CI)",343.15,1,CCOC(=O)CCBr,0,0,0,1
"Phenol, 2,4-dibromo-",374.35,1,Oc1ccc(Br)cc1Br,0,0,0,0
heptyl pentanoate,372.15,1,CCCCCCCOC(=O)CCCC,0,0,0,0
2-ethylbutanedinitrile,399.55,1,CCC(C#N)CC#N,0,0,0,0
"Carbamic acid, dimethyl-, benzo(b)thien-4-yl ester",434.55,1,CN(C)C(=O)Oc1cccc2sccc12,0,0,0,1
"Ethanol, 2-(butylamino)-",352.45,1,CCCCNCCO,0,0,0,0
2-(2-butoxyethoxy)ethyl thiocyanate,325.15,1,CCCCOCCOCCSC#N,0,0,0,0
4-amino-4-methylpentan-2-one,329.35,1,CC(=O)CC(C)(C)N,0,0,0,0
"Propane, 1-bromo-2,2-dimethyl-",279.85,1,CC(C)(C)CBr,0,0,0,0
"Benzeneacetic acid, alpha-hydroxy-, 3,3,5-trimethylcyclohexyl ester",423.25,1,CC1CC(OC(=O)C(O)c2ccccc2)CC(C)(C)C1,0,0,0,1
"Phosphoric acid, diethyl 4-nitrophenyl ester",435.45,1,CCOP(=O)(OCC)Oc1ccc([N+](=O)[O-])cc1,0,0,0,1
"1-Butanamine, N-butyl-N-methyl-",315.35,1,CCCCN(C)CCCC,0,0,0,0
"1,1,2,2,3,3,4,4,5,6-decafluoro-5,6-bis(trifluoromethyl)cyclohexane",287.35,1,FC(F)(F)C1(F)C(F)(F)C(F)(F)C(F)(F)C(F)(F)C1(F)C(F)(F)F,0,0,0,0
"3-(aminomethyl)-3,5,5-trimethylcyclohexan-1-amine",383.15,1,CC1(CC(CC(C1)(C)CN)N)C,0,0,0,0
iso-Amyl nitrate,325.15,1,CC(C)CCO[N+](=O)[O-],0,0,0,0
"Acetamide, 2-chloro-N-(1-methylethyl)-N-phenyl-",402.55,1,CC(C)N(C(=O)CCl)c1ccccc1,0,0,0,0
methoxycyclohexane,293.85,1,COC1CCCCC1,0,0,0,0
"Benzene, 1-(chloromethyl)-4-methyl-",348.75,1,Cc1ccc(CCl)cc1,0,0,0,0
ethyl 2-methoxyacetate,319.25,1,CCOC(=O)COC,0,0,0,0
"2-methylbuta-1,3-diene",219.15,1,CC(=C)C=C,0,0,0,0
"Acetamide, N-(7-hydroxyfluoren-2-yl)- (8CI)",553.05,1,CC(=O)Nc1ccc2c(c1)Cc1cc(O)ccc1-2,0,0,0,0
"bis(prop-2-enyl) benzene-1,2-dicarboxylate",383.15,1,C=CCOC(=O)C1=CC=CC=C1C(=O)OCC=C,0,0,0,0
3-methylsulfanylprop-1-ene,291.45,1,C=CCSC,0,0,0,0
"Ergoline, 8,9-didehydro-6,8-dimethyl-",482.45,1,CC1=C[C@@H]2c3cccc4[nH]cc(c34)C[C@H]2N(C)C1,0,0,0,0
"Carbamic acid, methyl-, 3,4-xylyl ester",389.35,1,CNC(=O)Oc1ccc(C)c(C)c1,0,0,0,1
isobutylformate,277,1,C(C(C)C)OC=O,0,0,0,0
"Malonic acid, methyl-, diethyl ester (8CI)",349.85,1,CCOC(=O)C(C)C(=O)OCC,0,0,0,1
"1,1,1,2,2,3,3,4,4,4-decafluorobutane",277.35,1,FC(F)(F)C(F)(F)C(F)(F)C(F)(F)F,0,0,0,0
"2,2-dimethylpentan-3-ol",311.45,1,CCC(O)C(C)(C)C,0,0,0,0
tris(2-chloroethyl) phosphate,505.15,1,C(CCl)OP(=O)(OCCCl)OCCCl,0,0,0,0
"2,2-bis(ethylsulfonyl)propane",556.05,1,CCS(=O)(=O)C(C)(C)S(=O)(=O)CC,0,0,0,0
"Benzamide, 3,5-dinitro-",417.15,1,NC(=O)c1cc([N+](=O)[O-])cc([N+](=O)[O-])c1,0,0,0,0
"1,2-Dithiolan-4-amine, N,N-dimethyl-",353.55,1,CN(C)C1CSSC1,0,0,0,0
"Benzonitrile, 4-chloro-3,5-dinitro-",424.35,1,N#Cc1cc([N+](=O)[O-])c(Cl)c([N+](=O)[O-])c1,0,0,0,0
"Benzene, 1,4-dichloro-2,5-dimethoxy-",378.85,1,COc1cc(Cl)c(OC)cc1Cl,0,0,0,0
"Benzoic acid, 2-amino-, methyl ester",386.05,1,COC(=O)c1ccccc1N,0,0,0,1
1-(chloromethyl)-3-methylbenzene,348.75,1,Cc1cccc(CCl)c1,0,0,0,0
1-chloro-1-nitropropane,335.15,1,CCC([N+](=O)[O-])Cl,0,0,0,0
butanal,266,1,C(CCC)=O,0,0,0,0
"1,2-dimethyl-4-phenylbenzene",402.05,1,Cc1ccc(-c2ccccc2)cc1C,0,0,0,0
2-methylbutane,222,1,CC(C)CC,0,0,0,0
Tetramethylenediamine,324.85,1,NCCCCN,0,0,0,0
1-(2-hydroperoxypropan-2-yl)-4-propan-2-ylbenzene,410.15,1,CC(C)c1ccc(C(C)(C)OO)cc1,0,0,0,0
"2,3,7,8-tetrachlorodibenzo-p-dioxin",277.15,1,C1=C2C(=CC(=C1Cl)Cl)OC3=CC(=C(C=C3O2)Cl)Cl,0,0,0,0
"Propane, 2-nitro-2-nitroso-",309.25,1,CC(C)(N=O)[N+](=O)[O-],0,0,0,0
"Benzoic acid, 3-methyl-",423.15,1,Cc1cccc(C(=O)O)c1,0,0,0,1
3-pyridin-2-ylpropan-1-ol,376.95,1,OCCCc1ccccn1,0,0,0,0
"2-O-decyl 1-O-octyl benzene-1,2-dicarboxylate",508.15,1,CCCCCCCCCCOC(=O)C1=CC=CC=C1C(=O)OCCCCCCCC,0,0,0,0
"1,2,3-Benzotriazin-4(3H)-one (8CI)",397.75,1,O=c1[nH]nnc2ccccc12,0,0,0,0
"Azoxybenzene, 4,4'-diethoxy- (8CI)",493.05,1,CCOc1ccc(N=[N+]([O-])c2ccc(OCC)cc2)cc1,0,0,0,0
"N,N-dimethylformamide",330,1,CN(C=O)C,0,0,0,0
"1,2-diphenylbenzene",436,1,c1ccc(cc1)c1ccccc1c1ccccc1,0,0,0,0
"2,2,2-tribromoethyl acetate",402.85,1,CC(=O)OCC(Br)(Br)Br,0,0,0,0
"Benzene, 1,1'-thiobis(4-nitro-",521.75,1,O=[N+]([O-])c1ccc(Sc2ccc([N+](=O)[O-])cc2)cc1,0,0,0,0
1-(4-methoxyphenyl)ethanone,411.15,1,CC(=O)C1=CC=C(C=C1)OC,0,0,0,0
"Propanoic acid, 2-methyl-, phenylmethyl ester",368.65,1,CC(C)C(=O)OCc1ccccc1,0,0,0,1
ethyl 2-hydroxy-2-methylpropanoate,317.15,1,CCOC(=O)C(C)(C)O,0,0,0,0
"Benzo(b)naphtho(2,1-d)thiophene (8CI)(9CI)",436.15,1,c1ccc2c(c1)ccc1c3ccccc3sc21,0,0,0,0
2-ethyl-1-pentene,263,1,C(C)C(=C)CCC,0,0,0,0
3-bromobenzoic acid,413.35,1,O=C(O)c1cccc(Br)c1,0,0,0,1
"4(1H)-Pyrimidinone, 2-amino-6-hydroxy-",553.55,1,Nc1nc(=O)cc(O)[nH]1,0,0,0,0
phenoxybenzene,388.15,1,C1=CC=C(C=C1)OC2=CC=CC=C2,0,0,0,0
1-bromopentane,303,1,BrCCCCC,0,0,0,0
p-DIISOPROPYLBENZENE HYDROPEROXIDE,465,1,CC(C)c1ccc(C(C)C)cc1.[O-]O,0,0,0,0
4-methyl-1-propan-2-ylcyclohex-3-en-1-ol,352.15,1,CC1=CCC(CC1)(C(C)C)O,0,0,0,0
methyl 3-methylbutanoate,292.55,1,COC(=O)CC(C)C,0,0,0,0
Ethyl2-benzofurancarboxylate,392.65,1,CCOC(=O)c1cc2ccccc2o1,0,0,0,0
"Benzamide, o-chloro- (8CI)",393.25,1,NC(=O)c1ccccc1Cl,0,0,0,0
"4-bromo-N,N-diethylaniline",398.25,1,CCN(CC)c1ccc(Br)cc1,0,0,0,0
prop-2-enyl 3-oxobutanoate,348.15,1,C=CCOC(=O)CC(C)=O,0,0,0,0
"3-Pyridinol, 2-bromo-",421.55,1,Oc1cccnc1Br,0,0,0,0
4-methylheptane,278,1,CC(CCC)CCC,0,0,0,0
"anthracene-9,10-dione",458.15,1,C1=CC=C2C(=C1)C(=O)C3=CC=CC=C3C2=O,0,0,0,0
2-(2-methylphenyl)acetaldehyde,377.75,1,Cc1ccccc1CC=O,0,0,0,0
"6,8-dimethylquinoline",386.65,1,Cc1cc(C)c2ncccc2c1,0,0,0,0
"Benzenebutanoic acid, alpha,2-diamino-3-hydroxy-gamma-oxo- (9CI)",541.05,1,Nc1c(O)cccc1C(=O)CC(N)C(=O)O,0,0,0,1
"1-methyl-1,2,3,4-tetrahydronaphthalene",352.25,1,CC1CCCc2ccccc21,0,0,0,0
"1,1'-Biphenyl, 2-nitro- (9CI)",452.15,1,O=[N+]([O-])c1ccccc1-c1ccccc1,0,0,0,0
1-Phenanthrenamine (9CI),497.55,1,Nc1cccc2c1ccc1ccccc12,0,0,0,0
"Benzene, 1-methoxy-4-(2-(4-nitrophenyl)ethenyl)-, (E)-",439.75,1,COc1ccc(/C=C/c2ccc([N+](=O)[O-])cc2)cc1,0,0,0,0
"2,2,2-trifluoroethyl 2,2,2-trifluoroacetate",273.15,1,O=C(OCC(F)(F)F)C(F)(F)F,0,0,0,0
"Benzimidazole, 7-nitro-4,5,6-trichloro-2-(trifluoromethyl)-",493.45,1,O=[N+]([O-])c1c(Cl)c(Cl)c(Cl)c2[nH]c(C(F)(F)F)nc12,0,0,0,0
"Acetonitrile, (p-chlorophenyl)-",406.15,1,N#CCc1ccc(Cl)cc1,0,0,0,0
2-Nitro-6-aminophenol,396.45,1,Nc1cccc([N+](=O)[O-])c1O,0,0,0,0
"2-Propenoic acid, 2-methyl-, 2-cyanoethyl ester (9CI)",381.95,1,C=C(C)C(=O)OCCC#N,0,0,0,1
2-bromonaphthalene,400.95,1,Brc1ccc2ccccc2c1,0,0,0,0
"9H-Fluorene, 2,7-dinitro- (9CI)",503.05,1,O=[N+]([O-])c1ccc2c(c1)Cc1cc([N+](=O)[O-])ccc1-2,0,0,0,0
"Phenol, 5-methyl-2-pentyl- (9CI)",398.45,1,CCCCCc1ccc(C)cc1O,0,0,0,0
"2-Oxepanone, methyl-",359.15,1,CC1CCCCOC1=O,0,0,0,0
"Isoflavone, 4',7-dihydroxy- (8CI)",474.35,1,O=c1c(-c2ccc(O)cc2)coc2cc(O)ccc12,0,0,0,0
"2,8,9-Trioxa-5-aza-1-silabicyclo(3.3.3)undecane, 1-phenyl-",398.75,1,c1ccc([Si]23OCCN(CCO2)CCO3)cc1,1,1,0,0
"Propanedioic acid, (1-methylethylidene)-, diethyl ester",382.55,1,CCOC(=O)C(C(=O)OCC)=C(C)C,0,0,0,1
"2,3,4,5-Tetrafluorobenzonitrile",343.15,1,N#Cc1cc(F)c(F)c(F)c1F,0,0,0,0
"Ethane, 1,2-bis(2-chloroethoxy)-",394.15,1,ClCCOCCOCCCl,0,0,0,0
"Benzenesulfonamide, N,N-dibutyl-4-chloro-",467.15,1,CCCCN(CCCC)S(=O)(=O)c1ccc(Cl)cc1,0,0,0,0
"1,8-dimethyldibenzothiophene",403.35,1,Cc1ccc2sc3cccc(C)c3c2c1,0,0,0,0
"1,2-Ethanedione, 1,2-diphenyl-",415.75,1,O=C(C(=O)c1ccccc1)c1ccccc1,0,0,0,0
"Ethanol, 2-fluoro-",304.25,1,OCCF,0,0,0,0
oxan-4-one,336.75,1,O=C1CCOCC1,0,0,0,0
"1H-Pyrrolo(3,2-h)quinoline",454.05,1,c1cnc2c(c1)ccc1cc[nH]c12,0,0,0,0
undecan-5-ol,367.15,1,CCCCCCC(O)CCCC,0,0,0,0
3-(3-Pyridyl)propan-1-ol,389.55,1,OCCCc1cccnc1,0,0,0,0
"Carbamic acid, o-chloro-alpha-ethylbenzyl ester",440.15,1,CCC(OC(N)=O)c1ccccc1Cl,0,0,0,1
2-chloro-1-nitropropane,332.95,1,CC(Cl)C[N+](=O)[O-],0,0,0,0
1-bromobutane,283,1,BrCCCC,0,0,0,0
"4(3H)-Quinazolinone, 2-methyl-3-(3-methyl-2-pyridinyl)-",488.45,1,Cc1cccnc1-n1c(C)nc2ccccc2c1=O,0,0,0,0
"1-Butanamine, 1,1,2,2,3,3,4,4,4-nonafluoro-N,N-bis(nonafluorobutyl)-",337.25,1,FC(F)(F)C(F)(F)C(F)(F)C(F)(F)N(C(F)(F)C(F)(F)C(F)(F)C(F)(F)F)C(F)(F)C(F)(F)C(F)(F)C(F)(F)F,0,0,0,0
"Dibenz(c,f)indeno(1,2,3-ij)(2,7)naphthyridine",537.65,1,c1ccc2c(c1)-c1nc3ccccc3c3c1c-2nc1ccccc13,0,0,0,0
"2,4-dimethylphenol",367,1,CC1=C(C=CC(=C1)C)O,0,0,0,0
"Dibenzo(b,f)(1,4)thiazepine, 2-chloro-11-(4-methyl-1-piperazinyl)-",519.55,1,CN1CCN(C2=Nc3ccccc3Sc3ccc(Cl)cc32)CC1,0,0,0,0
diisobutylketone,322,1,C(C(C)C)C(=O)CC(C)C,0,0,0,0
"Benz(a)anthracene, 9-methyl-",490.95,1,Cc1ccc2cc3c(ccc4ccccc43)cc2c1,0,0,0,0
ethylpropylether,248,1,C(C)OCCC,0,0,0,0
2-methylbut-3-yn-2-ol,298.15,1,CC(C)(C#C)O,0,0,0,0
3H-1-benzofuran-2-one,370.05,1,O=C1Cc2ccccc2O1,0,0,0,0
Bis(4-nitrophenyl) disulphide,516.509,1,O=[N+]([O-])c1ccc(SSc2ccc([N+](=O)[O-])cc2)cc1,0,0,0,0
1-undecanol,388,1,C(CCCCCCCCCC)O,0,0,0,0
1-phenyl-2-methylbutane,337,1,C1(=CC=CC=C1)CC(CC)C,0,0,0,0
"2,4,6(1H,3H,5H)-Pyrimidinetrione, 5-ethyl-1-methyl-5-phenyl-",466.35,1,CCC1(c2ccccc2)C(=O)NC(=O)N(C)C1=O,0,0,0,0
1-bromo-2-methoxybenzene,369.15,1,COc1ccccc1Br,0,0,0,0
"1,6-Dinitrocarbazole",551.85,1,O=[N+]([O-])c1ccc2[nH]c3c([N+](=O)[O-])cccc3c2c1,0,0,0,0
"Benzene, 1-(chloromethyl)-3-nitro-",401.85,1,O=[N+]([O-])c1cccc(CCl)c1,0,0,0,0
"2-Cyclopenten-1-one, 2,3,4,4,5,5-hexachloro-",375.35,1,O=C1C(Cl)=C(Cl)C(Cl)(Cl)C1(Cl)Cl,0,0,0,0
"Quinoline, 6-amino- (8CI)",455.05,1,Nc1ccc2ncccc2c1,0,0,0,0
"2,2-dimethylpropyl propanoate",334,1,CCC(=O)OCC(C)(C)C,0,0,0,0
"Benzene, (2-bromo-2-nitroethenyl)-",399.35,1,O=[N+]([O-])C(Br)=Cc1ccccc1,0,0,0,0
"1,3,5-tribromo-2-methylbenzene",400.75,1,Cc1c(Br)cc(Br)cc1Br,0,0,0,0
"1,3,4-Thiadiazole, 2-amino-",371.45,1,Nc1nncs1,0,0,0,0
"Silane, dichloromethyl-",240.95,1,[SiH3]C(Cl)Cl,1,1,0,0
"Benzenamine, 2,5-dimethyl-",367.05,1,Cc1ccc(C)c(N)c1,0,0,0,0
"3-CHLORO-1,2-PROPANEDIOL",408.1,1,OCC(O)CCl,0,0,0,0
"(E)-2,3-dichloro-1,1,1,4,4,4-hexafluorobut-2-ene",276.35,1,FC(F)(F)/C(Cl)=C(\Cl)C(F)(F)F,0,0,0,0
"Phenol, 2-hexyl- (9CI)",413.05,1,CCCCCCc1ccccc1O,0,0,0,0
"2,4,6,8-Tetramethyl-1,3,5,7-tetraoxacyclooctane",323.15,1,CC1OC(C)OC(C)OC(C)O1,0,0,0,0
"9-Undecen-2-one, 6,10-dimethyl-",377.35,1,CC(=O)CCCC(C)CCC=C(C)C,0,0,0,0
1-phenylethanol,358.15,1,CC(O)c1ccccc1,0,0,0,0
isopropylcyclohexane,308,1,C(C)(C)C1CCCCC1,0,0,0,0
TRICHLOROGERMANE,285.15,1,Cl[GeH](Cl)Cl,0,1,0,0
"2,3-Dimethylphenylhydroxylamine",384.85,1,Cc1cccc(NO)c1C,0,0,0,0
5-Fluoro-2-nitrophenol,364.15,1,O=[N+]([O-])c1ccc(F)cc1O,0,0,0,0
"2-ethyl-2-methylpropane-1,3-diol",369.25,1,CCC(C)(CO)CO,0,0,0,0
"2-tert-butylbenzene-1,4-diol",444.15,1,CC(C)(C)C1=C(C=CC(=C1)O)O,0,0,0,0
"2,2-dimethyl-5-methylidenebicyclo[2.2.1]heptane",308.05,1,C=C1CC2CC1CC2(C)C,0,0,0,0
"Phosphorothioic acid, O,O-dimethyl ester",331.25,1,COP([O-])(=S)OC,0,0,0,1
nonan-2-one,337.15,1,CCCCCCCC(=O)C,0,0,0,0
"1,2-propanediol",372,1,C(C(C)O)O,0,0,0,0
"1,2-Benzenediol, 3,4,5,6-tetrabromo- (9CI)",432.15,1,Oc1c(O)c(Br)c(Br)c(Br)c1Br,0,0,0,0
Hydrazinecarbothioamide,353.15,1,NNC(N)=S,0,0,0,0
(E)-hex-3-enedinitrile,419.35,1,N#CC/C=C/CC#N,0,0,0,0
4-Nitropyrocatechol,441.95,1,O=[N+]([O-])c1ccc(O)c(O)c1,0,0,0,0
"5,5'-Methylenedianthranilic acid",575.55,1,Nc1ccc(Cc2ccc(N)c(C(=O)O)c2)cc1C(=O)O,0,0,0,1
"2-amino-4,6-dinitrophenol",483.15,1,C1=C(C=C(C(=C1[N+](=O)[O-])O)N)[N+](=O)[O-],0,0,0,0
"Ethanol, 2,2-dichloro-",351.45,1,OCC(Cl)Cl,0,0,0,0
(E)-Pent-2-en-1-al,292.15,1,CC/C=C/C=O,0,0,0,0
"Benzoic acid, 2,5-dichloro-, methyl ester",386.35,1,COC(=O)c1cc(Cl)ccc1Cl,0,0,0,1
"Pyrido(2,3-d)pyridazine",452.45,1,c1cnc2cnncc2c1,0,0,0,0
(2-hydroxyethyl)propylamine,351,1,OCCNCCC,0,0,0,0
"1-Triazene, 1,3-diphenyl-",411.35,1,c1ccc(N=NNc2ccccc2)cc1,0,0,0,0
5-methyl-1H-indole,387.85,1,Cc1ccc2[nH]ccc2c1,0,0,0,0
"(2,2,2-trifluoroacetyl) 2,2,2-trifluoroacetate",247.15,1,O=C(OC(=O)C(F)(F)F)C(F)(F)F,0,0,0,0
"Benzene, 1,3-difluoro- (9CI)",275.15,1,Fc1cccc(F)c1,0,0,0,0
1-phenylethanamine,352.15,1,CC(C1=CC=CC=C1)N,0,0,0,0
4-methyl-1-phenylpentan-1-one,372.55,1,CC(C)CCC(=O)c1ccccc1,0,0,0,0
4-propylheptane,308,1,C(CC)C(CCC)CCC,0,0,0,0
"Octanoic acid, hexyl ester",393.15,1,CCCCCCCC(=O)OCCCCCC,0,0,0,1
"1,2,3,4-tetrachloro-5,5-dimethoxycyclopenta-1,3-diene",339.85,1,COC1(OC)C(Cl)=C(Cl)C(Cl)=C1Cl,0,0,0,0
"Benzoxazole, 2-(p-chlorophenyl)-",421.95,1,Clc1ccc(-c2nc3ccccc3o2)cc1,0,0,0,0
"7a-methyl-4,7-dihydro-3aH-2-benzofuran-1,3-dione",623.15,1,CC12CC=CCC1C(=O)OC2=O,0,0,0,0
2-chloroacetyl chloride,373.15,1,C(C(=O)Cl)Cl,0,0,0,0
"4-Morpholineacetonitrile, alpha-methyl-",363.85,1,CC(C#N)N1CCOCC1,0,0,0,0
"Acetamide, N-(9-oxo-9H-fluoren-2-yl)- (9CI)",490.15,1,CC(=O)Nc1ccc2c(c1)C(=O)c1ccccc1-2,0,0,0,0
"1H-Imidazole-1-ethanol, 2-heptadecyl-4,5-dihydro-",522.65,1,CCCCCCCCCCCCCCCCCC1=NCCN1CCO,0,0,0,0
"Benzene, o-dibromo- (8CI)",368.65,1,Brc1ccccc1Br,0,0,0,0
3-cyclohexylpropanoic acid,404.65,1,O=C(O)CCC1CCCCC1,0,0,0,1
"Piperidine, 1-nitroso-",365.95,1,O=NN1CCCCC1,0,0,0,0
3-trichlorosilylpropyl 2-methylprop-2-enoate,391.45,1,C=C(C)C(=O)OCCC[Si](Cl)(Cl)Cl,1,1,0,0
"Phenol, 2-(1-methylethyl)-4,6-dinitro- (9CI)",400.65,1,CC(C)c1cc([N+](=O)[O-])cc([N+](=O)[O-])c1O,0,0,0,0
5-methyl-3-heptanone,316,1,CC(CC(CC)=O)CC,0,0,0,0
methyl prop-2-ynoate,283.15,1,C#CC(=O)OC,0,0,0,0
"Caffeine, 8-(p-aminobenzyl)-",576.15,1,Cn1c(=O)c2c(nc(Cc3ccc(N)cc3)n2C)n(C)c1=O,0,0,0,0
"Terephthalonitrile, tetrafluoro- (8CI)",374.05,1,N#Cc1c(F)c(F)c(C#N)c(F)c1F,0,0,0,0
"Urea, 1,1-dimethyl-3-(alpha,alpha,alpha-trifluoro-m-tolyl)-",423.15,1,CN(C)C(=O)Nc1cccc(C(F)(F)F)c1,0,0,0,0
"1,3,5-triisopropylbenzene",360,1,CC(C)c1cc(cc(c1)C(C)C)C(C)C,0,0,0,0
"1,3-Benzenediol, 2,4,6-tribromo- (9CI)",381.15,1,Oc1c(Br)cc(Br)c(O)c1Br,0,0,0,0
hexan-3-ol,314.817,1,CCCC(O)CC,0,0,0,0
2-methylpentan-2-ol,294.25,1,CCCC(C)(C)O,0,0,0,0
"3,3-dimethyl-1-butyne",239,1,CC(C#C)(C)C,0,0,0,0
"1-Propanamine, 3-(diethoxymethylsilyl)-",348.75,1,CCOC(OCC)[SiH2]CCCN,1,1,0,0
"2,5-dimethyl-1,4-dioxane",297.15,1,CC1COC(CO1)C,0,0,0,0
ethenyl methanoate,256,1,C=COC=O,0,0,0,0
"Benz(a)anthracene, 2-methyl-",490.95,1,Cc1ccc2ccc3cc4ccccc4cc3c2c1,0,0,0,0
Propyl sulfoxide (8CI),374.45,1,CCCS(=O)CCC,0,0,0,0
"1,2-difluorobenzene",275.35,1,Fc1ccccc1F,0,0,0,0
"1-Pentanol, 2-propyl-",344.85,1,CCCC(CO)CCC,0,0,0,0
methylacrylate,270,1,COC(C=C)=O,0,0,0,0
"2-Furanacetamide, alpha-((5-nitro-2-furanyl)methylene)- (9CI)",504.95,1,NC(=O)C(=Cc1ccc([N+](=O)[O-])o1)c1ccco1,0,0,0,0
"2,3-dimethylhexan-2-ol",329.75,1,CCCC(C)C(C)(C)O,0,0,0,0