compound,flashpoint,pure substance,smiles,is_silicon,is_metallic,is_tin,is_acid
"Ethanethiol, 2-(trimethoxysilyl)-",344.95,1,CO[Si](CCS)(OC)OC,1,1,0,0
"Oxirane, 2,2'-(oxybis(methylene))bis(2-methyl- (9CI)",343.25,1,CC1(COCC2(C)CO2)CO1,0,0,0,0
4-bromo-1-butene,282,1,BrCCC=C,0,0,0,0
2-methylpentanedinitrile,399.15,1,CC(CCC#N)C#N,0,0,0,0
"Hexane, 1-cyclohexyl- (8CI)",353.35,1,CCCCCCC1CCCCC1,0,0,0,0
ethenyl-tri(propan-2-yloxy)silane,359.75,1,C=C[Si](OC(C)C)(OC(C)C)OC(C)C,1,1,0,0
"1H-Pyrrole-2,5-dione, 1,1'-(1,6-hexanediyl)bis- (9CI)",491.25,1,O=C1C=CC(=O)N1CCCCCCN1C(=O)C=CC1=O,0,0,0,0
"1-Hexanol, 6-chloro-",372.05,1,OCCCCCCCl,0,0,0,0
"Acetic acid, (2,4-dichlorophenoxy)-, 2-butoxyethyl ester (8CI,9CI)",426.05,1,CCCCOCCOC(=O)COc1ccc(Cl)cc1Cl,0,0,0,1
2-tert-butylphenol,375,1,C(C)(C)(C)C1=C(C=CC=C1)O,0,0,0,0
"2-Propenoic acid, 3-(4-nitrophenyl)-",427.05,1,O=C(O)C=Cc1ccc([N+](=O)[O-])cc1,0,0,0,1
2-Propenamide,352.15,1,C=CC(N)=O,0,0,0,0
"6-Nonenamide, 8-methyl-N-vanillyl-, (E)- (8CI)",536.25,1,COc1cc(CNC(=O)CCCC/C=C/C(C)C)ccc1O,0,0,0,0
"1,4-dihydronaphthalene",343.85,1,C1=CCc2ccccc2C1,0,0,0,0
"Cholestan-3-ol, 5,6-epoxy-, (3beta,5alpha,6alpha)- (9CI)",474.05,1,CC(C)CCC[C@@H](C)[C@H]1CC[C@H]2[C@@H]3C[C@@H]4O[C@@]45C[C@@H](O)CC[C@]5(C)[C@H]3CC[C@@]21C,0,0,0,0
"Ethanone, 1-(4-hydroxy-3-methoxyphenyl)-",398.65,1,COc1cc(C(C)=O)ccc1O,0,0,0,0
"Ethene, (2-methoxyethoxy)- (9CI)",282.45,1,C=COCCOC,0,0,0,0
2-methyl-2-pentanethiol,293,1,CC(C)(CCC)S,0,0,0,0
"Benzenesulfonic acid, 4-methyl-, ethyl ester",430.15,1,CCOS(=O)(=O)c1ccc(C)cc1,0,0,0,1
"Thioxanthen-9-one, 1-((2-(diethylamino)ethyl)amino)-4-(hydroxymethyl)-",572.05,1,CCN(CC)CCNc1ccc(CO)c2sc3ccccc3c(=O)c12,0,0,0,0
"Phthalimide, N-amino- (8CI)",437.75,1,NN1C(=O)c2ccccc2C1=O,0,0,0,0
Octadecanoyl chloride,438.15,1,CCCCCCCCCCCCCCCCCC(=O)Cl,0,0,0,0
"2,2,4-trimethylpentane-1,3-diol",386.15,1,CC(C)C(C(C)(C)CO)O,0,0,0,0
bis(prop-2-enyl) carbonate,332.05,1,C=CCOC(=O)OCC=C,0,0,0,0
N-methyl-N-phenylaniline,389.75,1,CN(c1ccccc1)c1ccccc1,0,0,0,0
"Acetic acid, phenyl-, ethyl ester",371.35,1,CCOC(=O)Cc1ccccc1,0,0,0,1
ethyl thiophene-2-carboxylate,359.25,1,CCOC(=O)c1cccs1,0,0,0,0
"Propanenitrile, 3,3'-(methylimino)bis-",424.55,1,CN(CCC#N)CCC#N,0,0,0,0
"1,4-dichloro-2-nitrobenzene",408.15,1,C1=CC(=C(C=C1Cl)[N+](=O)[O-])Cl,0,0,0,0
"1-chloro-1,2,2-trifluoroethene",246.15,1,C(=C(F)Cl)(F)F,0,0,0,0
3-Chloro-3-ethylheptane,333.1,1,CCCCC(Cl)(CC)CC,0,0,0,0
Benzyl 4-hydroxyphenyl ketone,445.35,1,O=C(Cc1ccccc1)c1ccc(O)cc1,0,0,0,0
"2-Propenoic acid, 2-ethoxyethyl ester",325.95,1,C=CC(=O)OCCOCC,0,0,0,1
"(2S)-2,6-diaminohexanoic acid",415.35,1,NCCCC[C@H](N)C(=O)O,0,0,0,1
(E)-pent-2-enenitrile,296.15,1,CCC=CC#N,0,0,0,0
"Silane, triethoxyoctyl-",374.45,1,CCOC(CCCCCCC[SiH3])(OCC)OCC,1,1,0,0
"1,1'-Biphenyl, 2-fluoro-",521.15,1,Fc1ccccc1-c1ccccc1,0,0,0,0
"2(3H)-Benzothiazolethione, 5-chloro- (9CI)",428.45,1,S=c1[nH]c2cc(Cl)ccc2s1,0,0,0,0
"S-(2,3,3-trichloroprop-2-enyl) N,N-di(propan-2-yl)carbamothioate",363.15,1,CC(C)N(C(C)C)C(=O)SCC(=C(Cl)Cl)Cl,0,0,0,0
"Oxiraneoctanoic acid, 3-octyl- (9CI)",414.25,1,CCCCCCCCC1OC1CCCCCCCC(=O)O,0,0,0,1
"1H-Indene, 3a,4,7,7a-tetrahydro-",306.95,1,C1=CCC2CC=CC2C1,0,0,0,0
p-isopropyltoluene,320,1,C(C)(C)C1=CC=C(C)C=C1,0,0,0,0
"4,7-Methanoindan, 1,4,5,6,7,8,8-heptachloro-3a,4,7,7a-tetrahydro-",462.55,1,ClC1=C(Cl)C2(Cl)C3C(Cl)CCC3C1(Cl)C2(Cl)Cl,0,0,0,0
"Propanoic acid, 2-(4-chlorophenoxy)-2-methyl-",422.95,1,CC(C)(Oc1ccc(Cl)cc1)C(=O)O,0,0,0,1
2-methyldodecane,344,1,CC(C)CCCCCCCCCC,0,0,0,0
"1H-Benzotriazole, 1-hydroxy-, hydrate",435.35,1,O.On1nnc2ccccc21,0,0,0,0
"Bicyclo(2.2.1)hept-2-ene, 5-(bromomethyl)-1,2,3,4,7,7-hexachloro-",479.65,1,ClC1=C(Cl)C2(Cl)C(CBr)CC1(Cl)C2(Cl)Cl,0,0,0,0
"Valeramide, 2-propyl-",393.05,1,CCCC(CCC)C(N)=O,0,0,0,0
"3,3-dimethylhexane",272,1,CC(CC)(CCC)C,0,0,0,0
"Benzene, 1,4-dimethyl-2-nitro-",373.15,1,Cc1ccc(C)c([N+](=O)[O-])c1,0,0,0,0
"Cyclohexanemethanamine, 4-amino-alpha,alpha,4-trimethyl-",366.45,1,CC1(N)CCC(C(C)(C)N)CC1,0,0,0,0
heptyl octanoate,403.15,1,CCCCCCCOC(=O)CCCCCCC,0,0,0,0
"Glycine, N,N-dimethyl-",332.95,1,CN(C)CC(=O)O,0,0,0,0
(E)-dec-5-ene,319.25,1,CCCC/C=C/CCCC,0,0,0,0
2-chloro-5-(trifluoromethyl)pyridine,330.754,1,FC(F)(F)c1ccc(Cl)nc1,0,0,0,0
9H-Fluoren-9-one,417.292,1,O=C1c2ccccc2-c2ccccc21,0,0,0,0
"Phosphonic acid, ((ethylthio)methylidyne)tris-, hexaethyl ester",538.45,1,CCOP(=O)(OCC)C(SCC)(P(=O)(OCC)OCC)P(=O)(OCC)OCC,0,0,0,1
"Benzene, 1,2,3,4-tetrachloro-5,6-dimethoxy-",395.25,1,COc1c(Cl)c(Cl)c(Cl)c(Cl)c1OC,0,0,0,0
"Naphth(2,1-f)isoquinoline",486.35,1,c1ccc2c(c1)ccc1c3ccncc3ccc21,0,0,0,0
3-methylbut-2-enoyl chloride,324.15,1,CC(C)=CC(=O)Cl,0,0,0,0
"2-Pyridinecarboxylic acid, 5-butyl-",426.05,1,CCCCc1ccc(C(=O)O)nc1,0,0,0,1
2-phenylethylpropionate,386,1,C1(=CC=CC=C1)CCOC(CC)=O,0,0,0,0
"2,3,4,5-tetramethylhexane",304,1,CC(C)C(C(C(C)C)C)C,0,0,0,0
3-bromohexane,313,1,BrC(CC)CCC,0,0,0,0
"1,1,1-triethoxypropane",333.15,1,CCOC(CC)(OCC)OCC,0,0,0,0
4-methylpiperidine,280.35,1,CC1CCNCC1,0,0,0,0
Tryptophan ,497.85,1,N[C@@H](Cc1c[nH]c2ccccc12)C(=O)O,0,0,0,0
diisobutylphthalate,458,1,C(C(C)C)OC(C=1C(C(=O)OCC(C)C)=CC=CC1)=O,0,0,0,0
"Benzene, 1-fluoro-2-nitro-",367.15,1,O=[N+]([O-])c1ccccc1F,0,0,0,0
"pentane-2,4-dione",307.15,1,CC(=O)CC(=O)C,0,0,0,0
"3,5-Pyridinedicarbonitrile, 2,6-dichloro-4-phenyl-",497.45,1,N#Cc1c(Cl)nc(Cl)c(C#N)c1-c1ccccc1,0,0,0,0
1-bromo-2-ethoxyethane,294.15,1,CCOCCBr,0,0,0,0
"1,3-Benzenediamine, 4-nitro-",487.15,1,Nc1ccc([N+](=O)[O-])c(N)c1,0,0,0,0
2-(2-methoxypropoxy)propyl acetate,359.15,1,CC(COC(C)COC(=O)C)OC,0,0,0,0
"Phosphorochloridothioic acid, O,O-dimethyl ester",366.15,1,COP(=S)(Cl)OC,0,0,0,1
"Thiourea, N,N'-diphenyl-",437.85,1,S=C(Nc1ccccc1)Nc1ccccc1,0,0,0,0
2-Chlorooctane,325.7,1,CCCCCCC(C)Cl,0,0,0,0
"2-Furancarboximidamide, N-hydroxy-5-nitro-",465.35,1,N=C(NO)c1ccc([N+](=O)[O-])o1,0,0,0,0
"Phenol, 2,2'-thiobis(4-chloro-6-methyl- (9CI)",485.85,1,Cc1cc(Cl)cc(Sc2cc(Cl)cc(C)c2O)c1O,0,0,0,0
"bis(2-butoxyethyl) benzene-1,2-dicarboxylate",680.15,1,CCCCOCCOC(=O)C1=CC=CC=C1C(=O)OCCOCCCC,0,0,0,0
1-Chloroheptadecane,418.4,1,CCCCCCCCCCCCCCCCCCl,0,0,0,0
nitrocyclohexane,354,1,[N+](=O)([O-])C1CCCCC1,0,0,0,0
"trimethyl 2-hydroxypropane-1,2,3-tricarboxylate",352.35,1,COC(=O)CC(O)(CC(=O)OC)C(=O)OC,0,0,0,0
ethyl undecanoate,386,1,CCCCCCCCCCC(=O)OCC,0,0,0,0
"Phenol, 4-(1-methylpropyl)-",388.75,1,CCC(C)c1ccc(O)cc1,0,0,0,0
2-hydroxyethyl octadecanoate,533.15,1,CCCCCCCCCCCCCCCCCC(=O)OCCO,0,0,0,0
"2-Nonynoic acid, methyl ester",373.75,1,CCCCCCC#CC(=O)OC,0,0,0,1
butan-2-one,270.15,1,CCC(=O)C,0,0,0,0
"9,10-Dihydro-9-oxoanthracene",423.45,1,O=C1c2ccccc2Cc2ccccc21,0,0,0,0
"Malealdehydic acid, dibromo- (8CI)",421.55,1,O=C/C(Br)=C(/Br)C(=O)O,0,0,0,1
"Phenol, 2,3,5-trichloro-",378.25,1,Oc1cc(Cl)cc(Cl)c1Cl,0,0,0,0
"2,4-Pyrimidinediamine, 5-((3,4-dimethoxyphenyl)methyl)-",533.05,1,COc1ccc(Cc2cnc(N)nc2N)cc1OC,0,0,0,0
"1,3,3-trimethyl-2-methylideneindole",367.15,1,C=C1N(C)c2ccccc2C1(C)C,0,0,0,0
phenyl(thiophen-2-yl)methanone,412.85,1,O=C(c1ccccc1)c1cccs1,0,0,0,0
"Phenol, 2-methyl-5-nitro-",407.35,1,Cc1ccc([N+](=O)[O-])cc1O,0,0,0,0
"1,2-dichloro-3-methylbenzene",356.15,1,Cc1cccc(Cl)c1Cl,0,0,0,0
"1,2,3,4-tetrahydronaphthalene",353.15,1,C1CCC2=CC=CC=C2C1,0,0,0,0
"Morpholine, 4-butyl-",325.05,1,CCCCN1CCOCC1,0,0,0,0
"2,3-dibromobutane",306.15,1,CC(Br)C(C)Br,0,0,0,0
"Benzene, 1-(1-isocyanato-1-methylethyl)-3-(1-methylethenyl)-",406.45,1,C=C(C)c1cccc(C(C)(C)N=C=O)c1,0,0,0,0
"1,1-dimethylcyclopentane",257,1,CC1(CCCC1)C,0,0,0,0
5-(Aminomethyl)isoxazol-3-ol hydrate,423.55,1,NCc1cc(O)no1.O,0,0,0,0
"trans-1,3-PENTADIENE",230,1,C=C/C=C/C,0,0,0,0
"4-Pyridinecarboxaldehyde, oxime",345.25,1,ON=Cc1ccncc1,0,0,0,0
"m-Anisaldehyde, 2-hydroxy- (8CI)",367.15,1,COc1cccc(C=O)c1O,0,0,0,0
2-Phenazinamine (9CI),522.85,1,Nc1ccc2nc3ccccc3nc2c1,0,0,0,0
"Benzimidazole, 5-fluoro-2-(trifluoromethyl)-",388.85,1,Fc1ccc2nc(C(F)(F)F)[nH]c2c1,0,0,0,0
"Phenol, 2,6-bis(1,1-dimethylethyl)-4-methyl-, methylcarbamate (9CI)",429.15,1,CNC(=O)Oc1c(C(C)(C)C)cc(C)cc1C(C)(C)C,0,0,0,0
"1,2-dichloro-3-(2,4-dichlorophenyl)benzene",414.15,1,C1=CC(=C(C(=C1)Cl)Cl)C2=C(C=C(C=C2)Cl)Cl,0,0,0,0
"Carbamic acid, cyclopropyl(phenylmethyl)-, ethyl ester",422.95,1,CCOC(=O)N(Cc1ccccc1)C1CC1,0,0,0,1
1-bromo-4-phenylbenzene,416.15,1,C1=CC=C(C=C1)C2=CC=C(C=C2)Br,0,0,0,0
1-fluoro-4-isothiocyanatobenzene,362.55,1,Fc1ccc(N=C=S)cc1,0,0,0,0
"Acetic acid, (p-aminophenyl)-",435.05,1,Nc1ccc(CC(=O)O)cc1,0,0,0,1
"Benzeneacetic acid, 2-propenyl ester",386.15,1,C=CCOC(=O)Cc1ccccc1,0,0,0,1
"Ethane, pentabromo-",393.45,1,BrC(Br)C(Br)(Br)Br,0,0,0,0
"1,3,5-Triazine-2,4-diamine, 6-chloro-N-methyl-N'-(1-methylethyl)-",443.25,1,CNc1nc(Cl)nc(NC(C)C)n1,0,0,0,0
"Formamide, N-phenyl-",423.35,1,O=CNc1ccccc1,0,0,0,0
"1,1,2-trimethylcyclohexane",298.35,1,CC1CCCCC1(C)C,0,0,0,0
"2,3-dihydro-1H-indole",365.95,1,c1ccc2c(c1)CCN2,0,0,0,0
"Maleonitrile, diamino- (8CI)",495.85,1,N#C/C(N)=C(/N)C#N,0,0,0,0
"propane-1,2,3-triol",433.15,1,C(C(CO)O)O,0,0,0,0
"Methanone, (2-hydroxy-4-(octyloxy)phenyl)phenyl-",428.25,1,CCCCCCCCOc1ccc(C(=O)c2ccccc2)c(O)c1,0,0,0,0
tert-butyl prop-2-enoate,292.15,1,CC(C)(C)OC(=O)C=C,0,0,0,0
3-heptanone,311,1,CCC(CCCC)=O,0,0,0,0
1-isocyanatopropane,272.15,1,CCCN=C=O,0,0,0,0
"1-methoxy-2,3-dimethylbenzene",342.95,1,COc1cccc(C)c1C,0,0,0,0
"Pentanoic acid, 2-bromo-, ethyl ester",353.75,1,CCCC(Br)C(=O)OCC,0,0,0,1
methyl 2-hydroxypropanoate,324.15,1,CC(C(=O)OC)O,0,0,0,0
"7H-Furo(3,2-g)(1)benzopyran-7-one, 4-methoxy-",476.35,1,COc1c2ccoc2cc2oc(=O)ccc12,0,0,0,0
"Phosphine, ethyldiphenyl-",412.75,1,CCP(c1ccccc1)c1ccccc1,0,0,0,0
ethylacetoacetate,343,1,C(C)OC(CC(=O)C)=O,0,0,0,0
"2H-Purin-2-one, 1,3-dihydro-",640.25,1,O=c1[nH]cc2ncnc-2[nH]1,0,0,0,0
"Phenol, 2,4-dichloro-3-methyl-",381.35,1,Cc1c(Cl)ccc(O)c1Cl,0,0,0,0
"Heptanedioic acid, 4-oxo-, diethyl ester",410.55,1,CCOC(=O)CCC(=O)CCC(=O)OCC,0,0,0,1
ethyl N-[2-(4-phenoxyphenoxy)ethyl]carbamate,497.15,1,CCOC(=O)NCCOC1=CC=C(C=C1)OC2=CC=CC=C2,0,0,0,0
"Phosphonodithioic acid, ethyl-, O-ethyl S-phenyl ester",422.65,1,CCOP(=S)(CC)Sc1ccccc1,0,0,0,1
"9-Thiabicyclo(3.3.1)nonane, 2,6-dichloro-",417.45,1,ClC1CCC2SC1CCC2Cl,0,0,0,0
"Benzene, 1-(1,1-dimethylethyl)-2-methoxy-4-methyl-3,5-dinitro-",422.75,1,COc1c(C(C)(C)C)cc([N+](=O)[O-])c(C)c1[N+](=O)[O-],0,0,0,0
"Xanthen-9-one, 1,3,7-trihydroxy-",497.85,1,O=c1c2cc(O)ccc2oc2cc(O)cc(O)c12,0,0,0,0
"Phosphoric acid, 2,4-dichlorophenyl diethyl ester",481.65,1,CCOP(=O)(OCC)Oc1ccc(Cl)cc1Cl,0,0,0,1
formaldehyde;isocyanatobenzene,491.15,1,C=O.C1=CC=C(C=C1)N=C=O,0,0,0,0
PENTAETHYLENE GLYCOL DIMETHYL ETHER,468,1,COCCOCCOCCOCCOCCOC,0,0,0,0
1-nitropiperidine,391.25,1,O=[N+]([O-])N1CCCCC1,0,0,0,0
"dioctyl benzene-1,2-dicarboxylate",377.15,1,CCCCCCCCOC(=O)C1=CC=CC=C1C(=O)OCCCCCCCC,0,0,0,0
3-chlorotoluene,323,1,ClC=1C=C(C)C=CC1,0,0,0,0
Dibutyl tartrate,364.15,1,CCCCOC(=O)C(O)C(O)C(=O)OCCCC,0,0,0,0
"Benz(c)acridine, 7,9-dimethyl-",481.85,1,Cc1ccc2nc3c(ccc4ccccc43)c(C)c2c1,0,0,0,0
"Butanedioic acid, dipropyl ester",384.55,1,CCCOC(=O)CCC(=O)OCCC,0,0,0,1
"Threitol, 1,4-dimethanesulfonate, (2S,3S)- (8CI)",594.05,1,CS(=O)(=O)OC[C@H](O)[C@@H](O)COS(C)(=O)=O,0,0,0,0
1-heptylsulfanylheptane,422.05,1,CCCCCCCSCCCCCCC,0,0,0,0
"Benzene, (3,3-dimethoxy-1-propenyl)-",372.55,1,COC(C=Cc1ccccc1)OC,0,0,0,0
bromobenzene,324.15,1,C1=CC=C(C=C1)Br,0,0,0,0
CINNAMIC acid,445,1,O=C(O)C=Cc1ccccc1,0,0,0,1
hexyl pentanoate,361.05,1,CCCCCCOC(=O)CCCC,0,0,0,0
"Benzoic acid, 3,6-dichloro-2-hydroxy-",412.45,1,O=C(O)c1c(Cl)ccc(Cl)c1O,0,0,0,1
"1,1,2,3,3-pentachloropropane",353.05,1,ClC(Cl)C(Cl)C(Cl)Cl,0,0,0,0
"Phenol, 2,6-diiodo-4-nitro-",414.75,1,O=[N+]([O-])c1cc(I)c(O)c(I)c1,0,0,0,0
"2-Naphthalenemethanol, alpha-(((1-methylethyl)amino)methyl)-",357.45,1,CC(C)NCC(O)c1ccc2ccccc2c1,0,0,0,0
NICKEL DI-n-BUTYLDITHIOCARBAMATE,533.15,1,CCCCN(CCCC)C(=S)[S-].CCCCN(CCCC)C(=S)[S-].[Ni+2],0,1,0,0
2-butylpropanedioic acid,442.55,1,CCCCC(C(=O)O)C(=O)O,0,0,0,1
2-Thiophenecarboxaldehyde,350.95,1,O=Cc1cccs1,0,0,0,0
N-(1-piperidin-1-ylpropan-2-yl)-N-pyridin-2-ylpropanamide,474.95,1,CCC(=O)N(c1ccccn1)C(C)CN1CCCCC1,0,0,0,0
"1,1-Ethanediol, 2,2,2-trichloro-",330.45,1,OC(O)C(Cl)(Cl)Cl,0,0,0,0
2-amino-1-phenylethanone,376.55,1,NCC(=O)c1ccccc1,0,0,0,0
1-chloro-2-(chloromethyl)benzene,355.15,1,ClCc1ccccc1Cl,0,0,0,0
"Phenol, 3,4-dinitro-",467.25,1,O=[N+]([O-])c1ccc(O)cc1[N+](=O)[O-],0,0,0,0
1-(4-methylphenyl)butan-1-one,383.25,1,CCCC(=O)c1ccc(C)cc1,0,0,0,0
1-fluoro-3-methoxybenzene,317.05,1,COc1cccc(F)c1,0,0,0,0
"Salicylaldehyde, 3,5-dibromo- (6CI,7CI,8CI)",384.85,1,O=Cc1cc(Br)cc(Br)c1O,0,0,0,0
"1,3,5-Triazin-2-amine, 4-methoxy-N,6-dimethyl-",411.35,1,CNc1nc(C)nc(OC)n1,0,0,0,0
"2-Pyridinamine, 5-methyl-",384.05,1,Cc1ccc(N)nc1,0,0,0,0
"4-ethyl-1,2-dimethylbenzene",331,1,C(C)C1=CC(=C(C=C1)C)C,0,0,0,0
oxepane,287.35,1,C1CCCOCC1,0,0,0,0
"Acetic acid, iodo-, ethyl ester",350.15,1,CCOC(=O)CI,0,0,0,1
"Benzimidazole, 4,5,6,7-tetrafluoro-2-(trifluoromethyl)-",389.95,1,Fc1c(F)c(F)c2[nH]c(C(F)(F)F)nc2c1F,0,0,0,0
1-methylcycloheptene,293.75,1,CC1=CCCCCC1,0,0,0,0
"Benzamide, N,N-diethyl-",398.65,1,CCN(CC)C(=O)c1ccccc1,0,0,0,0
"Phenol, 2,3,6-trichloro-",366.45,1,Oc1c(Cl)ccc(Cl)c1Cl,0,0,0,0
"Methanone, (2,4-dihydroxyphenyl)phenyl-",398.15,1,O=C(c1ccccc1)c1ccc(O)cc1O,0,0,0,0
"(1Z,3Z,5Z)-cycloocta-1,3,5-triene",300.95,1,C1=C\C=C/CC\C=C/1,0,0,0,0
1-(3-methylpiperidin-1-yl)ethanone,379.85,1,CC(=O)N1CCCC(C)C1,0,0,0,0
"1,2-dimethylimidazole",365.15,1,Cc1nccn1C,0,0,0,0
"4-ethyl-2,6-dimethylpyridine",330.55,1,CCc1cc(C)nc(C)c1,0,0,0,0
"(1S,4R)-3,3-dimethyl-2-methylidenebicyclo[2.2.1]heptane",308.05,1,C=C1[C@H]2CC[C@H](C2)C1(C)C,0,0,0,0
2-[2-[2-(2-ethylbutanoyloxy)ethoxy]ethoxy]ethyl 2-ethylbutanoate,469.15,1,CCC(CC)C(=O)OCCOCCOCCOC(=O)C(CC)CC,0,0,0,0
2-[2-(2-methoxypropoxy)propoxy]propan-1-ol,384.15,1,CC(CO)OCC(C)OCC(C)OC,0,0,0,0
2-(3-methylphenyl)acetonitrile,381.55,1,Cc1cccc(CC#N)c1,0,0,0,0
"1-Penten-3-one, 1-(4-methoxyphenyl)- (9CI)",424.65,1,CCC(=O)C=Cc1ccc(OC)cc1,0,0,0,0
"Butanoic acid, 2-bromo-3-methyl-",380.15,1,CC(C)C(Br)C(=O)O,0,0,0,1
"3-Butyne-1,2-diol, 2-methyl-1-phenyl-",436.25,1,C#CC(C)(O)C(O)c1ccccc1,0,0,0,0
1-Hepten-3-yne,281.35,1,C=CC#CCCC,0,0,0,0
"2-Anthracenecarboxylic acid, 9,10-dihydro-1-nitro-9,10-dioxo- (9CI)",525.45,1,O=C1c2ccccc2C(=O)c2c1ccc(C(=O)O)c2[N+](=O)[O-],0,0,0,1
"2-Butanone, 1-bromo-3,3-dimethyl-",348.15,1,CC(C)(C)C(=O)CBr,0,0,0,0
"trans-1,2-Dichlorocyclohexane",339.25,1,Cl[C@@H]1CCCC[C@H]1Cl,0,0,0,0
1-Penten-3-ol,298.15,1,C=CC(O)CC,0,0,0,0
"2,4-dimethyl-1,3-thiazole",315.15,1,Cc1csc(C)n1,0,0,0,0
2-aminophenol,441.15,1,C1=CC=C(C(=C1)N)O,0,0,0,0
"Phenol, 2,4'-methylenedi- (8CI)",458.05,1,Oc1ccc(Cc2ccccc2O)cc1,0,0,0,0
oxan-2-one,354.15,1,O=C1CCCCO1,0,0,0,0
1H-Imidazole-4-ethanamine,453.45,1,NCCc1c[nH]cn1,0,0,0,0
"Ether, 2-(butylthio)ethyl vinyl",353.65,1,C=COCCSCCCC,0,0,0,0
ALLYLTRIS(TRIMETHYLSILOXY)SILANE,340.15,1,C=CC[Si](O[Si](C)(C)C)(O[Si](C)(C)C)O[Si](C)(C)C,1,1,0,0
"Ethane, 1-chloro-1,1,2,2,2-pentafluoro-",343.15,1,FC(F)(F)C(F)(F)Cl,0,0,0,0
(3-methylphenyl)methanol,378,1,OCc1cccc(C)c1,0,0,0,0
"Acetamide, 2-chloro-",381.75,1,NC(=O)CCl,0,0,0,0
"Morpholine, 4-(3-aminopropyl)- (8CI)",371.15,1,NCCCN1CCOCC1,0,0,0,0
oxolan-3-ol,354.25,1,OC1CCOC1,0,0,0,0
"Phosphoric acid, dibutyl phenyl ester",442.25,1,CCCCOP(=O)(OCCCC)Oc1ccccc1,0,0,0,1
2-chloro-4-nitroaniline,478.15,1,C1=CC(=C(C=C1[N+](=O)[O-])Cl)N,0,0,0,0
"2-methylpentane-2,4-diol",366.15,1,CC(CC(C)(C)O)O,0,0,0,0
"2,2,3,3,4,4,4-heptafluorobutanoic acid",291.15,1,O=C(O)C(F)(F)C(F)(F)C(F)(F)F,0,0,0,1
"2,2,3,4-tetramethylhexane",304,1,CC(C)(C(C(CC)C)C)C,0,0,0,0
1-ethoxy-2-fluorobenzene,333.25,1,CCOc1ccccc1F,0,0,0,0
2-dimethylaminoethyl acetate,529.95,1,CC(=O)OCCN(C)C,0,0,0,0
N'-phenylbenzohydrazide,394.15,1,O=C(NNc1ccccc1)c1ccccc1,0,0,0,0
6-methylhept-5-en-2-ol,340.95,1,CC(C)=CCCC(C)O,0,0,0,0
"2,2,4,4,6,8,8-heptamethylnonane",368,1,CC(C)(CC(CC(CC(C)(C)C)C)(C)C)C,0,0,0,0
"1-Chloro-2,3-dimethylbutane",294,1,CC(C)C(C)CCl,0,0,0,0
"but-2-yne-1,4-diol",401.15,1,C(C#CCO)O,0,0,0,0
"2-Piperidineacetic acid, alpha-phenyl-, methyl ester",425.15,1,COC(=O)C(c1ccccc1)C1CCCCN1,0,0,0,1
1-iodo-2-nitrobenzene,396.05,1,O=[N+]([O-])c1ccccc1I,0,0,0,0
"5,6-dichloro-2-benzofuran-1,3-dione",417.95,1,O=C1OC(=O)c2cc(Cl)c(Cl)cc21,0,0,0,0
"Cyclohexanemethanamine, 5-amino-1,3,3-trimethyl-",371.85,1,CC1(C)CC(N)CC(C)(CN)C1,0,0,0,0
"Propane, 1,2-epithio-",283.15,1,CC1CS1,0,0,0,0
"Benzenamine, 2-ethoxy-",372.35,1,CCOc1ccccc1N,0,0,0,0
"Phosphoric acid, tripropyl ester",394.45,1,CCCOP(=O)(OCCC)OCCC,0,0,0,1
"Peroxide, bis(alpha,alpha-dimethylbenzyl)",372.75,1,CC(C)(OOC(C)(C)c1ccccc1)c1ccccc1,0,0,0,0
2-methyl-3-pentanone,289,1,CC(C)C(CC)=O,0,0,0,0
"9,10-Anthracenedione, 1-hydroxy-4-((4-methylphenyl)amino)-",541.85,1,Cc1ccc(Nc2ccc(O)c3c2C(=O)c2ccccc2C3=O)cc1,0,0,0,0
"Benzene, (2-bromoethyl)-",362.55,1,BrCCc1ccccc1,0,0,0,0
4-isopropylcyclohexanone,338,1,C(C)(C)C1CCC(CC1)=O,0,0,0,0
"Benzimidazole, 4,5,7-trichloro-6-nitro-2-(trifluoromethyl)-",492.05,1,O=[N+]([O-])c1c(Cl)c(Cl)c2[nH]c(C(F)(F)F)nc2c1Cl,0,0,0,0
"2,4-Dichlorochinoline",427.35,1,Clc1cc(Cl)c2ccccc2n1,0,0,0,0
"1,2,4-tri(propan-2-yl)benzene",369.55,1,CC(C)c1ccc(C(C)C)c(C(C)C)c1,0,0,0,0
2-[1-(1-methoxypropan-2-yloxy)propan-2-yloxy]propan-1-ol,394.15,1,CC(CO)OC(C)COC(C)COC,0,0,0,0
"2,5-Cyclohexadiene-1,4-dione, 2,5-dimethyl-",344.25,1,CC1=CC(=O)C(C)=CC1=O,0,0,0,0
"1,2,4-trimethylbenzene",317.15,1,CC1=CC(=C(C=C1)C)C,0,0,0,0
ISOPROPYL ISOBUTYL ETHER,268,1,CC(C)COC(C)C,0,0,0,0
tetradecan-2-ol,379.15,1,CCCCCCCCCCCCC(C)O,0,0,0,0
"Phenol, 4,5-dichloro-2-methoxy-",394.95,1,COc1cc(Cl)c(Cl)cc1O,0,0,0,0
7-bromoheptanoic acid,396.75,1,O=C(O)CCCCCCBr,0,0,0,1
bis(2-methylpropyl) carbonate,344.65,1,CC(C)COC(=O)OCC(C)C,0,0,0,0
2-phenylpropan-1-ol,366,1,OCC(C)c1ccccc1,0,0,0,0
"1-Octanol, 8-fluoro-",378.95,1,OCCCCCCCCF,0,0,0,0
"Piperidine, 1-methyl-4-(9H-thioxanthen-9-ylidene)- (9CI)",492.85,1,CN1CCC(=C2c3ccccc3Sc3ccccc32)CC1,0,0,0,0
2-Fluoroquinoline,373.25,1,Fc1ccc2ccccc2n1,0,0,0,0
(5S)-2-methyl-5-prop-1-en-2-ylcyclohex-2-en-1-one,362.15,1,CC1=CCC(CC1=O)C(=C)C,0,0,0,0
Benzo(h)quinoline,429.05,1,c1ccc2c(c1)ccc1cccnc12,0,0,0,0
methyl (2E)-oct-2-enoate,356,1,CCCCC/C=C/C(=O)OC,0,0,0,0
(2R)-1-phenylpropan-2-amine,360.55,1,C[C@@H](N)Cc1ccccc1,0,0,0,0
"1,3,5-trifluorobenzene",333.65,1,Fc1cc(F)cc(F)c1,0,0,0,0
"Acetamide, N-ethyl-N-vinyl-",345.65,1,C=CN(CC)C(C)=O,0,0,0,0
2-phenyl-1H-pyrrole,397.75,1,c1ccc(-c2ccc[nH]2)cc1,0,0,0,0
"Acenaphthylene, 1,2-dihydro-3-nitro- (9CI)",473.45,1,O=[N+]([O-])c1ccc2cccc3c2c1CC3,0,0,0,0
"2(3H)-Furanone, dihydro-5-pentyl-",371.95,1,CCCCCC1CCC(=O)O1,0,0,0,0
"1(3H)-Isobenzofuranone, 3-butylidene-",386.15,1,CCCC=C1OC(=O)c2ccccc21,0,0,0,0
1-nitrosopyrrolidine,356.15,1,C1CCN(C1)N=O,0,0,0,0
"Benz(a)anthracene, 10-methyl-",490.95,1,Cc1ccc2cc3ccc4ccccc4c3cc2c1,0,0,0,0
(2-tert-butylphenyl) diphenyl phosphate,497.15,1,CC(C)(C)C1=CC=CC=C1OP(=O)(OC2=CC=CC=C2)OC3=CC=CC=C3,0,0,0,0
"Benzenesulfonic acid, ethyl ester",398.65,1,CCOS(=O)(=O)c1ccccc1,0,0,0,1
"2,7-Dimethyl-2,6-octadiene",317.05,1,CC(C)=CCCC=C(C)C,0,0,0,0
"Benzenamine, 2-chloro-4,6-dinitro-",454.55,1,Nc1c(Cl)cc([N+](=O)[O-])cc1[N+](=O)[O-],0,0,0,0
quinoline,332.15,1,C1=CC=C2C(=C1)C=CC=N2,0,0,0,0
2-(dipropylamino)ethanol,338.75,1,CCCN(CCC)CCO,0,0,0,0
1-butyl-3-methylbenzene,343.9,1,CCCCc1cccc(C)c1,0,0,0,0
carbamoyl chloride,308.75,1,NC(=O)Cl,0,0,0,0
pent-4-enenitrile,319.35,1,C=CCCC#N,0,0,0,0
"2-Butanone, 1-chloro-3,3-dimethyl-",340.15,1,CC(C)(C)C(=O)CCl,0,0,0,0
"Anthracene, 1-chloro- (8CI)(9CI)",452.35,1,Clc1cccc2cc3ccccc3cc12,0,0,0,0
"Phenol, 2-amino-",441.15,1,Nc1ccccc1O,0,0,0,0
"Aniline, m-fluoro- (8CI)",350.35,1,Nc1cccc(F)c1,0,0,0,0
"1-Octanol, 7-methyl-",352.65,1,CC(C)CCCCCCO,0,0,0,0
triethyl(fluoro)silane,292.15,1,CC[Si](F)(CC)CC,1,1,0,0
"Guanidine, N-methyl-N'-nitro- (9CI)",378.55,1,CNC(=N)N[N+](=O)[O-],0,0,0,0
2-(ethoxymethyl)furan,314.35,1,CCOCc1ccco1,0,0,0,0
"1,2,3,4-Butanetetracarboxylic acid",415.85,1,O=C(O)CC(C(=O)O)C(CC(=O)O)C(=O)O,0,0,0,1
ETHYLTHIOETHANOL,350.1,1,CCSC(C)O,0,0,0,0
"Ethanone, 1-(2-chlorophenyl)-",361.15,1,CC(=O)c1ccccc1Cl,0,0,0,0
"Phenol, p-cyclohexyl- (8CI)",426.15,1,Oc1ccc(C2CCCCC2)cc1,0,0,0,0
heptyl propanoate,352.95,1,CCCCCCCOC(=O)CC,0,0,0,0