compound,flashpoint,pure substance,smiles,is_silicon,is_metallic,is_tin,is_acid
(2-methylphenyl)methanol,377,1,OCc1ccccc1C,0,0,0,0
"Chrysene, 1-methyl-",490.95,1,Cc1cccc2c1ccc1c3ccccc3ccc21,0,0,0,0
"1,3-Dithiane",363.15,1,C1CSCSC1,0,0,0,0
BIPHENYL,386,1,c1ccc(-c2ccccc2)cc1,0,0,0,0
"1-Oxa-3,8-diazaspiro(4,5)decan-2-one, 8-(2-phenylethyl)- (9CI)",513.75,1,O=C1NCC2(CCN(CCc3ccccc3)CC2)O1,0,0,0,0
"2-Pyridinecarboxaldehyde, oxime",346.65,1,ON=Cc1ccccn1,0,0,0,0
"1,2-dichloropropane;(E)-1,3-dichloroprop-1-ene",290.15,1,CC(CCl)Cl.C(C=CCl)Cl,0,0,0,0
2-hydroperoxypropan-2-ylbenzene,330.15,1,CC(C)(C1=CC=CC=C1)OO,0,0,0,0
"2,4,6-Octatriene, 2,6-dimethyl-, (4E,6E)-",324.95,1,C/C=C(C)/C=C/C=C(C)C,0,0,0,0
"2-Butenoic acid, anhydride",383.75,1,CC=CC(=O)OC(=O)C=CC,0,0,0,1
1-(2-methoxyphenyl)ethanol,383.95,1,COc1ccccc1C(C)O,0,0,0,0
3ethoxypropionaldehyde,311.15,1,CCOCCC=O,0,0,0,0
"1,4-Benzenediol, 2-methyl-",413.35,1,Cc1cc(O)ccc1O,0,0,0,0
isopropenylacetate,283,1,C(=C)(C)CC(=O)[O-],0,0,0,0
"2,4-dichloro-1-(chloromethyl)benzene",463.15,1,ClCc1ccc(Cl)cc1Cl,0,0,0,0
1-(bromomethyl)-2-methylbenzene,355.15,1,CC1=CC=CC=C1CBr,0,0,0,0
"3,5-dimethylhex-1-en-3-ol",313.25,1,C=CC(C)(O)CC(C)C,0,0,0,0
4-fluorotoluene,285,1,FC1=CC=C(C)C=C1,0,0,0,0
"2,4,4-trimethylpent-2-ene",272,1,CC(=CC(C)(C)C)C,0,0,0,0
"Pyridine, 3-fluoro- (8CI)(9CI)",286.483,1,Fc1cccnc1,0,0,0,0
"o-Toluidine, N-methyl- (8CI)",349.55,1,CNc1ccccc1C,0,0,0,0
dimethyl oxalate,348.15,1,COC(=O)C(=O)OC,0,0,0,0
2-(4-methoxyphenyl)acetaldehyde,381.65,1,COc1ccc(CC=O)cc1,0,0,0,0
2-chloroethanol,333.15,1,C(CCl)O,0,0,0,0
"9,10-Anthracenedione, 1-hydroxy-",491.95,1,O=C1c2ccccc2C(=O)c2c(O)cccc21,0,0,0,0
4-ethenylphenol,365.45,1,C=Cc1ccc(O)cc1,0,0,0,0
5-cyclohexylpentylcyclohexane,412.35,1,C1CCC(CCCCCC2CCCCC2)CC1,0,0,0,0
4-bromo-1-butene,282,1,C=CCCBr,0,0,0,0
"1,2-Benzenedicarboxylic acid, diphenyl ester",528.45,1,O=C(Oc1ccccc1)c1ccccc1C(=O)Oc1ccccc1,0,0,0,1
"2H-Pyran-2-methanamine, 3,4-dihydro- (9CI)",343.65,1,NCC1CCC=CO1,0,0,0,0
"Phosphonodithioic acid, ethyl-, O-ethyl S-(o-tolyl) ester",428.55,1,CCOP(=S)(CC)Sc1ccccc1C,0,0,0,1
butyl 2-methylprop-2-enoate,322,1,CCCCOC(=O)C(=C)C,0,0,0,0
"trans-1,3-HEXADIENE",254.2,1,C=C/C=C/CC,0,0,0,0
2-methoxy-2-methylpropane,238.706,1,COC(C)(C)C,0,0,0,0
"Benz(j)aceanthrylene, 1,2-dihydro-3-methyl-",268.15,1,Cc1ccc2cc3c(ccc4ccccc43)c3c2c1CC3,0,0,0,0
1-isocyanato-4-[(4-isocyanatophenyl)methyl]benzene,491.15,1,C1=CC(=CC=C1CC2=CC=C(C=C2)N=C=O)N=C=O,0,0,0,0
PROPYLENE GLYCOL ETHYL ETHER ACETATE,327,1,CCOCC(C)OC(C)=O,0,0,0,0
"1H-Benzimidazol-2-amine, 1-methyl-",429.45,1,Cn1c(N)nc2ccccc21,0,0,0,0
o-Nitroaniline,441.15,1,Nc1ccccc1[N+](=O)[O-],0,0,0,0
"Quinoline, 1-oxide, dihydrate",408.35,1,O.O.[O-][n+]1cccc2ccccc21,0,0,0,0
DI(2-ETHYLHEXYL)ADIPATE,466,1,CCCCC(CC)COC(=O)CCCCC(=O)OCC(CC)CCCC,0,0,0,0
butylbenzene,344.15,1,CCCCC1=CC=CC=C1,0,0,0,0
"1H-Pyrrole-2,5-dione, 1-phenyl-",409.95,1,O=C1C=CC(=O)N1c1ccccc1,0,0,0,0
"Benzoic acid, 4-hydroxy-",444.45,1,O=C(O)c1ccc(O)cc1,0,0,0,1
"1-methyl-3,5-dinitrobenzene",480.15,1,CC1=CC(=CC(=C1)[N+](=O)[O-])[N+](=O)[O-],0,0,0,0
"Benzene, heptyl-",370.6,1,CCCCCCCc1ccccc1,0,0,0,0
"Benzenamine, 4-(1-methylpropyl)-",380.95,1,CCC(C)c1ccc(N)cc1,0,0,0,0
"2-Propenal, 3-(2-furanyl)-",361.95,1,O=CC=Cc1ccco1,0,0,0,0
"3,3-dimethylheptane",300.35,1,CCCCC(C)(C)CC,0,0,0,0
phenol,352,1,Oc1ccccc1,0,0,0,0
6-methylchromen-2-one,403.15,1,CC1=CC2=C(C=C1)OC(=O)C=C2,0,0,0,0
"Ether, 2-chloroethyl vinyl",289.15,1,C=COCCCl,0,0,0,0
Cholest-5-ene,494.05,1,CC(C)CCC[C@@H](C)[C@H]1CC[C@H]2[C@@H]3CC=C4CCCC[C@]4(C)[C@H]3CC[C@@]21C,0,0,0,0
4-ethyloctane,314,1,C(C)C(CCC)CCCC,0,0,0,0
"1,1-dichloro-2-methylpropane",288.75,1,CC(C)C(Cl)Cl,0,0,0,0
1chloro2methylpropane,294,1,CC(C)CCl,0,0,0,0
"1,2-dimethyl-4-fluorobenzene",313,1,CC1=C(C=C(C=C1)F)C,0,0,0,0
"Benzenemethanol, 3-methyl-",378.75,1,Cc1cccc(CO)c1,0,0,0,0
"2-Propenoic acid, bicyclo(2.2.1)hept-5-en-2-ylmethyl ester",395.55,1,C=CC(=O)OCC1CC2C=CC1C2,0,0,0,1
decanal,358.15,1,CCCCCCCCCC=O,0,0,0,0
"1,3-Benzenediamine, 4-(phenylazo)-",487.95,1,Nc1ccc(N=Nc2ccccc2)c(N)c1,0,0,0,0
1-Piperidinecarboxaldehyde,364.15,1,O=CN1CCCCC1,0,0,0,0
4methyl1octanol,358.15,1,CCCCC(C)CCCO,0,0,0,0
"Carbonochloridic acid, phenylmethyl ester",280.15,1,O=C(Cl)OCc1ccccc1,0,0,0,1
ETHYL ACETOACETATE,330.4,1,CCOC(=O)CC(C)=O,0,0,0,0
DICYCLOHEXYLPHOSPHINE,383.15,1,C1CCC(PC2CCCCC2)CC1,0,0,0,0
1-phenylethanone,355.15,1,CC(=O)C1=CC=CC=C1,0,0,0,0
"9-Octadecenamide, N,N-bis(2-hydroxyethyl)-, (9Z)-",544.85,1,CCCCCCCC/C=C\CCCCCCCC(=O)N(CCO)CCO,0,0,0,0
2-methylpent-2-ene,250,1,CCC=C(C)C,0,0,0,0
"Propane, 1,2-epoxy-3-((2-ethylhexyl)oxy)-",369.85,1,CCCCC(CC)COCC1CO1,0,0,0,0
"Acetamide, N-(5-nitro-2-thiazolyl)-",410.65,1,CC(=O)Nc1ncc([N+](=O)[O-])s1,0,0,0,0
propylbenzoate,371,1,C(CC)OC(C1=CC=CC=C1)=O,0,0,0,0
AcetoxymethylTrimethylSilane,293.15,1,CC(=O)OC[Si](C)(C)C,1,1,0,0
ISOPRENE,219.3,1,C=CC(=C)C,0,0,0,0
"3-Butyn-2-ol, 2-methyl-",298.15,1,C#CC(C)(C)O,0,0,0,0
Benzo(c)chrysene,537.65,1,c1ccc2c(c1)ccc1c2ccc2ccc3ccccc3c21,0,0,0,0
"Phenol, 3,5-dimethyl-4-(methylthio)-",403.95,1,CSc1c(C)cc(O)cc1C,0,0,0,0
"hexane-1,2,6-triol",471.15,1,OCCCCC(O)CO,0,0,0,0
"Ethanol, 2,2'-dithiobis-",422.45,1,OCCSSCCO,0,0,0,0
"2-Propenoic acid, 3-phenyl-, butyl ester",363.15,1,CCCCOC(=O)C=Cc1ccccc1,0,0,0,1
tetratriacontane,618.45,1,CCCCCCCCCCCCCCCCCCCCCCCCCCCCCCCCCC,0,0,0,0
"Phenol, 2,3,6-trimethyl-",373.15,1,Cc1ccc(C)c(O)c1C,0,0,0,0
2-ethyloxazoline,302,1,CCC1=NCCO1,0,0,0,0
Butyraldehyde oxime,331.15,1,CCCC=NO,0,0,0,0
Carbostyril ,473.75,1,O=c1ccc2ccccc2[nH]1,0,0,0,0
3bromopropyltrichlorosilane,361.15,1,Cl[Si](Cl)(Cl)CCCBr,1,1,0,0
9-Aminofluorene,441.25,1,NC1c2ccccc2-c2ccccc21,0,0,0,0
1-heptanethiol,319,1,C(CCCCCC)S,0,0,0,0
"(3S,5S)-3,5-dimethylheptan-4-one",317.85,1,CC[C@H](C)C(=O)[C@@H](C)CC,0,0,0,0
2-methyl-2-heptene,281,1,CCCCC=C(C)C,0,0,0,0
Methyl isobutyl ketone,296.15,1,CC(=O)CC(C)C,0,0,0,0
3-METHYLHEPTANE,279,1,CCCCC(C)CC,0,0,0,0
"Ethane, 2-chloro-2-(difluoromethoxy)-1,1,1-trifluoro-",321.65,1,FC(F)OC(Cl)C(F)(F)F,0,0,0,0
"2-methyl-4,5-dihydro-1,3-thiazole",310.35,1,CC1=NCCS1,0,0,0,0
"Cyclopentasiloxane, decamethyl-",368.75,1,C[Si]1(C)O[Si](C)(C)O[Si](C)(C)O[Si](C)(C)O[Si](C)(C)O1,1,1,0,0
"4H-1,2,4-Triazole, 4-amino-",388.85,1,Nn1cnnc1,0,0,0,0
4-Aminoquinoline,454.35,1,Nc1ccnc2ccccc12,0,0,0,0
trans-STILBENE,418,1,C(=C/c1ccccc1)\c1ccccc1,0,0,0,0
"2,2,4-trimethylpentane-1,3-diol",383,1,OCC(C)(C)C(O)C(C)C,0,0,0,0
"Oxirane, 2,2'-(1,3-phenylenebis(oxymethylene))bis-",386.15,1,c1cc(OCC2CO2)cc(OCC2CO2)c1,0,0,0,0
UNDECYL MERCAPTAN,381,1,CCCCCCCCCCCS,0,0,0,0
"1H-Pyrrole-2,5-dione, 1-(2-chlorophenyl)-",426.25,1,O=C1C=CC(=O)N1c1ccccc1Cl,0,0,0,0
"Benzonitrile, 3-nitro-",383.05,1,N#Cc1cccc([N+](=O)[O-])c1,0,0,0,0
"2,2-dimethoxy-N-methylethanamine",302.55,1,CNCC(OC)OC,0,0,0,0
p-METHYLSTYRENE,319,1,C=Cc1ccc(C)cc1,0,0,0,0
"Hydroxylamine, N-(p-chlorophenyl)- (8CI)",379.15,1,ONc1ccc(Cl)cc1,0,0,0,0
"Phenol, 2-methyl-3,5-dinitro- (9CI)",431.35,1,Cc1c(O)cc([N+](=O)[O-])cc1[N+](=O)[O-],0,0,0,0
"Benzoic acid, 3-methyl-4-nitro-",434.35,1,Cc1cc(C(=O)O)ccc1[N+](=O)[O-],0,0,0,1
"2-Buten-1-ol, 3-methyl-",316.15,1,CC(C)=CCO,0,0,0,0
"1-Butanamine, 3-methyl-N-(3-methylbutyl)-",319.75,1,CC(C)CCNCCC(C)C,0,0,0,0
4-methylpentan-2-amine,286.15,1,CC(C)CC(C)N,0,0,0,0
2phenylphenol,397.05,1,Oc1ccccc1-c1ccccc1,0,0,0,0
2-(2-hydroxyethoxy)ethanol,416.15,1,C(COCCO)O,0,0,0,0
"1H-Indene-1,3(2H)-dione, 2,2-dihydroxy-",512.85,1,O=C1c2ccccc2C(=O)C1(O)O,0,0,0,0
"2,3,5,6-Tetrafluorobenzaldehyde",347.05,1,O=Cc1c(F)c(F)cc(F)c1F,0,0,0,0
PhenethylMethylDichloroSilane,353.15,1,Cl[SiH](Cl)CCCc1ccccc1,1,1,0,0
m-NITROTOLUENE,375,1,Cc1cccc([N+](=O)[O-])c1,0,0,0,0
"1,3-Benzodioxole, 5-(bis(2-(2-butoxyethoxy)ethoxy)methyl)- (9CI)",470.75,1,CCCCOCCOCCOC(OCCOCCOCCCC)c1ccc2c(c1)OCO2,0,0,0,0
"Cyclohexane, 1,2-dibromo-4-(1,2-dibromoethyl)-",446.45,1,BrCC(Br)C1CCC(Br)C(Br)C1,0,0,0,0
"Cyclopentanecarboxylic acid, 1-phenyl-, 2-(diethylamino)ethyl ester",397.95,1,CCN(CC)CCOC(=O)C1(c2ccccc2)CCCC1,0,0,0,1
"Benzamide, 2-hydroxy-",419.45,1,NC(=O)c1ccccc1O,0,0,0,0
1-tert-butyl-3-methylbenzene,333.65,1,Cc1cccc(C(C)(C)C)c1,0,0,0,0
(2Z)-pent-2-ene,226,1,CC/C=C\C,0,0,0,0
"3,3-dimethyl-1-butene",244,1,C=CC(C)(C)C,0,0,0,0
"Cytidine, 2'-deoxy-5-iodo- (8CI)(9CI)",542.75,1,Nc1nc(=O)n([C@H]2C[C@H](O)[C@@H](CO)O2)cc1I,0,0,0,0
"N,N-diethyl-3-methylbutanamide",351.85,1,CCN(CC)C(=O)CC(C)C,0,0,0,0
DIOCTYL ADIPATE,500.1,1,CCCCCCCCOC(=O)CCCCC(=O)OCCCCCCCC,0,0,0,0
"Pentane, 1,5-dibromo-",367.85,1,BrCCCCCBr,0,0,0,0
"1,2-dimethoxypropane",273.75,1,COCC(C)OC,0,0,0,0
Tetramethyltetravinylcyclotetrasilane,385.15,1,C=C[Si]1(C)[Si](C)(C=C)[Si](C)(C=C)[Si]1(C)C=C,1,1,0,0
prop-2-enyl nonanoate,302.15,1,CCCCCCCCC(=O)OCC=C,0,0,0,0
(2S)-N-methyl-1-phenylpropan-2-amine,282.15,1,CC(CC1=CC=CC=C1)NC,0,0,0,0
Tetrachloroethylene,318,1,ClC(Cl)=C(Cl)Cl,0,0,0,0
1-ethylcyclohexan-1-ol,341.35,1,CCC1(O)CCCCC1,0,0,0,0
fluoromethylbenzene,290.55,1,FCc1ccccc1,0,0,0,0
1-undecanethiol,382,1,C(CCCCCCCCCC)S,0,0,0,0
m-PHENYLENEDIAMINE,411.1,1,Nc1cccc(N)c1,0,0,0,0
2-HEXANONE,296.1,1,CCCCC(C)=O,0,0,0,0
GLUTARONITRILE,417,1,N#CCCCC#N,0,0,0,0
p-Methylphenethylamine,363.15,1,Cc1ccc(CCN)cc1,0,0,0,0
"Benzenecarbothioamide, 2,6-dichloro- (9CI)",420.85,1,NC(=S)c1c(Cl)cccc1Cl,0,0,0,0
1-bromo-3-isothiocyanatobenzene,402.05,1,S=C=Nc1cccc(Br)c1,0,0,0,0
CyclopentadienylTrimethylSilane,302.15,1,C[Si](C)(C)C1C=CC=C1,1,1,0,0
"butane-1,3-diol",394.15,1,CC(CCO)O,0,0,0,0
"Benzenemethanol, 3-amino- (9CI)",402.75,1,Nc1cccc(CO)c1,0,0,0,0
"2,3dimethylaniline",370.15,1,Cc1cccc(N)c1C,0,0,0,0
dimethyl isophthalate,411,1,COC(=O)c1cccc(c1)C(=O)OC,0,0,0,0
"Peroxydicarbonic acid, bis(1-methylethyl) ester",352.25,1,CC(C)OC(=O)OOC(=O)OC(C)C,0,0,0,1
"1,2-dichloropropane",286,1,ClCC(C)Cl,0,0,0,0
"Salicylaldehyde, 3,5-dichloro- (8CI)",370.05,1,O=Cc1cc(Cl)cc(Cl)c1O,0,0,0,0
"Butane, 1,2-epoxy-4,4,4-trichloro-",348.95,1,ClC(Cl)(Cl)CC1CO1,0,0,0,0
"2,3dihydrofuran",249,1,C1=COCC1,0,0,0,0
vinylcyclohexane,294,1,C=CC1CCCCC1,0,0,0,0
"1,6-Octadien-3-ol, 3,7-dimethyl-, formate",358.75,1,C=CC(C)(CCC=C(C)C)OC=O,0,0,0,0
Pentafluoronitrobenzene,363.75,1,O=[N+]([O-])c1c(F)c(F)c(F)c(F)c1F,0,0,0,0
bisChloromethylMethylChloroSilane,315.15,1,C[Si](Cl)(CCl)CCl,1,1,0,0
"2-butyl-2-ethylpropane-1,3-diol",386,1,CCCCC(CC)(CO)CO,0,0,0,0
1-Nonene,297.15,1,C=CCCCCCCC,0,0,0,0
1-(1H-Pyrrol-2-yl)ethan-1-one,365.55,1,CC(=O)c1ccc[nH]1,0,0,0,0
3-[(2S)-1-methylpyrrolidin-2-yl]pyridine,368.15,1,CN1CCCC1C2=CN=CC=C2,0,0,0,0
"Benzamide, N-(1-methylethyl)-4-((2-methylhydrazino)methyl)- (9CI)",422.05,1,CNNCc1ccc(C(=O)NC(C)C)cc1,0,0,0,0
"2-Propenamide, N-(2-hydroxyethyl)-3-phenyl-",492.65,1,O=C(C=Cc1ccccc1)NCCO,0,0,0,0
"Benzenemethanamine, N-methyl-N-2-propynyl-",356.15,1,C#CCN(C)Cc1ccccc1,0,0,0,0
"1,1-dichloroethene",248,1,ClC(=C)Cl,0,0,0,0
"Ethanone, 1-(1-methyl-1H-pyrrol-2-yl)-",349.35,1,CC(=O)c1cccn1C,0,0,0,0
1-methyl-2-prop-2-enylbenzene,330.45,1,C=CCc1ccccc1C,0,0,0,0
octan-2-one,325.15,1,CCCCCCC(=O)C,0,0,0,0
2methyl3pentanol,319,1,CCC(O)C(C)C,0,0,0,0
"1,3,5,7-cyclooctatetraene",295,1,C1=CC=CC=CC=C1,0,0,0,0
TRI-n-OCTYLAMINE,457,1,CCCCCCCCN(CCCCCCCC)CCCCCCCC,0,0,0,0
(2E)-2-hexene,246,1,CCC/C=C/C,0,0,0,0
1-pentylsulfanylpentane,358.15,1,CCCCCSCCCCC,0,0,0,0
methyl nonadecanoate,386,1,CCCCCCCCCCCCCCCCCCC(=O)OC,0,0,0,0
BenzylDimethylChloroSilane,346.15,1,C[Si](C)(Cl)Cc1ccccc1,1,1,0,0
"Benzene, 1-bromo-3-chloro-",353.75,1,Clc1cccc(Br)c1,0,0,0,0
octadecane,439,1,CCCCCCCCCCCCCCCCCC,0,0,0,0
"alpha-D-Glucopyranoside, beta-D-fructofuranosyl",648.55,1,OC[C@H]1O[C@H](O[C@]2(CO)O[C@H](CO)[C@@H](O)[C@@H]2O)[C@H](O)[C@@H](O)[C@@H]1O,0,0,0,0
1bromopentane,304.15,1,CCCCCBr,0,0,0,0
TRIDECANAL,390,1,CCCCCCCCCCCCC=O,0,0,0,0
1-(3-methylphenyl)propan-1-one,371.25,1,CCC(=O)c1cccc(C)c1,0,0,0,0
alpha-Methyl-gamma-butyrolactone,348.15,1,CC1CCOC1=O,0,0,0,0
"2,6-DIETHYLNAPHTHALENE",410,1,CCc1ccc2cc(CC)ccc2c1,0,0,0,0
"2-Propenoic acid, 3-phenyl-, 3-phenylpropyl ester",533.75,1,O=C(C=Cc1ccccc1)OCCCc1ccccc1,0,0,0,1
2-Chloro-2-methylnonane,345.3,1,CCCCCCCC(C)(C)Cl,0,0,0,0
Cumene,309.15,1,CC(C)c1ccccc1,0,0,0,0
Decylamine,372.15,1,CCCCCCCCCCN,0,0,0,0
"1H,3H-Naphtho(1,8-cd)pyran-1,3-dione, 6-chloro-",481.45,1,O=C1OC(=O)c2ccc(Cl)c3cccc1c23,0,0,0,0
2-methoxyacetonitrile,304.85,1,COCC#N,0,0,0,0
PhenethylDimethylChloroSilane,343.15,1,C[Si](C)(Cl)CCc1ccccc1,1,1,0,0
n-HEXACOSANE,475,1,CCCCCCCCCCCCCCCCCCCCCCCCCC,0,0,0,0
tert-butyl benzenecarboperoxoate,366.15,1,CC(C)(C)OOC(=O)C1=CC=CC=C1,0,0,0,0
[(E)-but-2-enyl]benzene,329.35,1,C/C=C/Cc1ccccc1,0,0,0,0
2-methoxypyridine,305.15,1,COc1ccccn1,0,0,0,0
1-chlorooctane,343.15,1,CCCCCCCCCl,0,0,0,0
cyclopentylmethanol,335.35,1,OCC1CCCC1,0,0,0,0
"Phenol, 3,5-dimethyl-4-(methylsulfonyl)-, methylcarbamate (9CI)",482.65,1,CNC(=O)Oc1cc(C)c(S(C)(=O)=O)c(C)c1,0,0,0,0
"4H-1-Benzopyran-4-one, 5,7-dihydroxy-2-(4-hydroxyphenyl)-6-methoxy-",503.25,1,COc1c(O)cc2oc(-c3ccc(O)cc3)cc(=O)c2c1O,0,0,0,0
"[(1S,2S,4R)-1,7,7-trimethyl-2-bicyclo[2.2.1]heptanyl] acetate",361.15,1,CC(=O)OC1CC2CCC1(C2(C)C)C,0,0,0,0
"Benzoic acid, hydrazide",412.85,1,NNC(=O)c1ccccc1,0,0,0,1
"1H-Imidazole, 2-methyl-",418.05,1,Cc1ncc[nH]1,0,0,0,0
"3,3dimethyl2butanone",285.15,1,CC(=O)C(C)(C)C,0,0,0,0
"Silane, phenyltrifluoro-",288.35,1,F[Si](F)(F)c1ccccc1,1,1,0,0
"2-methylpropane-1,3-diol",375.65,1,CC(CO)CO,0,0,0,0
Hexadecamethylheptasiloxane,406.15,1,C[Si](C)(C)O[Si](C)(C)O[Si](C)(C)O[Si](C)(C)O[Si](C)(C)O[Si](C)(C)O[Si](C)(C)C,1,1,0,0
"2,3,5-tribromothiophene",387.65,1,Brc1cc(Br)c(Br)s1,0,0,0,0
"4,6-Dimethoxysalicylaldehyde",411.15,1,COc1cc(O)c(C=O)c(OC)c1,0,0,0,0
"2-Pyridinecarboxylic acid, 6-chloro- (9CI)",422.413,1,O=C(O)c1cccc(Cl)n1,0,0,0,1
"1,4-Benzenediamine, N,N'-bis(1,4-dimethylpentyl)-",507.95,1,CC(C)CCC(C)Nc1ccc(NC(C)CCC(C)C)cc1,0,0,0,0
"Dodecanoic acid, 2-thiocyanatoethyl ester (9CI)",465.15,1,CCCCCCCCCCCC(=O)OCCSC#N,0,0,0,1
"9,10-Anthracenedione, 1-amino-2-methyl-",517.95,1,Cc1ccc2c(c1N)C(=O)c1ccccc1C2=O,0,0,0,0
1-(4-hydroxyphenyl)ethanone,394.35,1,CC(=O)c1ccc(O)cc1,0,0,0,0
"2,6dimethylphenol",346,1,Cc1cccc(C)c1O,0,0,0,0
"2,2,4,4-tetramethylpentan-3-one",305.95,1,CC(C)(C)C(=O)C(C)(C)C,0,0,0,0
"Propanoic acid, 2-methyl-, 4-(1-piperidinyl)cyclohexyl ester (9CI)",377.25,1,CC(C)C(=O)OC1CCC(N2CCCCC2)CC1,0,0,0,1
ISOBUTENE,197,1,C=C(C)C,0,0,0,0
"Benzene, 1,2,4,5-tetramethyl-",347.05,1,Cc1cc(C)c(C)cc1C,0,0,0,0
"2-Propenal, 3,3-dichloro- (9CI)",327.15,1,O=CC=C(Cl)Cl,0,0,0,0
"Methane, sulfonylbis-",416.15,1,CS(C)(=O)=O,0,0,0,0
"propane-1,1-diol",372.15,1,CCC(O)O,0,0,0,0
2carene,428.15,1,CC1=CC2C(CC1)C2(C)C,0,0,0,0
methyl 2-octynoate,361,1,CCCCCC#CC(=O)OC,0,0,0,0
"2-methyl-4,5-dihydro-1,3-oxazole",293.15,1,CC1=NCCO1,0,0,0,0
Methylcyclopentadiene,299,1,CC1=CC=CC1,0,0,0,0
"2-Propanol, 1-(dimethylamino)-",308.15,1,CC(O)CN(C)C,0,0,0,0
"4(3H)-Quinazolinone, 6-amino-2-methyl-3-(o-tolyl)-",519.45,1,Cc1ccccc1-n1c(C)nc2ccc(N)cc2c1=O,0,0,0,0
2-methoxyaniline,372.15,1,COC1=CC=CC=C1N,0,0,0,0
tricosane,386.15,1,CCCCCCCCCCCCCCCCCCCCCCC,0,0,0,0
"Methanethioic acid, tetrathiobis-, O,O-diethyl ester (9CI)",458.95,1,CCOC(=S)SSSSC(=S)OCC,0,0,0,1
1heptanethiol,314.15,1,CCCCCCCS,0,0,0,0
"Phenanthrene, 7-isopropyl-1-methyl- (8CI)",450.962,1,Cc1cccc2c1ccc1cc(C(C)C)ccc12,0,0,0,0
"Decanoic acid, nonadecafluoro-",355.85,1,O=C(O)C(F)(F)C(F)(F)C(F)(F)C(F)(F)C(F)(F)C(F)(F)C(F)(F)C(F)(F)C(F)(F)F,0,0,0,1
"2-ethyl-1,2,3,4-tetrahydronaphthalene",365.95,1,CCC1CCc2ccccc2C1,0,0,0,0
2-BUTYL-NONAN-1-OL,404,1,CCCCCCCC(CO)CCCC,0,0,0,0
ethyl dodecanoate,386,1,CCCCCCCCCCCC(=O)OCC,0,0,0,0
"2,5-dimethylheptane",288,1,CC(C)CCC(CC)C,0,0,0,0
"1H-1,2,4-Triazole, 1-benzyl-",421.45,1,c1ccc(Cn2cncn2)cc1,0,0,0,0
ethenyl acetate,265.15,1,CC(=O)OC=C,0,0,0,0
1-nitropentane,334,1,[N+](=O)([O-])CCCCC,0,0,0,0
TETRAMETHYLTIN,261.15,1,C[Sn](C)(C)C,0,1,1,0
di-sec-butylether,288,1,C(C)(CC)OC(C)CC,0,0,0,0
"Benzenemethanol, 3-nitro-",419.35,1,O=[N+]([O-])c1cccc(CO)c1,0,0,0,0
4-phenylbutanoic acid,461.05,1,O=C(O)CCCc1ccccc1,0,0,0,1
n-TETRADECANOIC acid,446,1,CCCCCCCCCCCCCC(=O)O,0,0,0,1
"1,2-DICHLORO-4-NITROBENZENE",396.1,1,O=[N+]([O-])c1ccc(Cl)c(Cl)c1,0,0,0,0
"1,4-dichlorobut-2-ene",326.15,1,C(C=CCCl)Cl,0,0,0,0
"Benzoic acid, 3,4,5-trihydroxy-, octyl ester",450.25,1,CCCCCCCCOC(=O)c1cc(O)c(O)c(O)c1,0,0,0,1
"Oxiraneoctanoic acid, 3-octyl-, 2-propenyl ester (9CI)",433.65,1,C=CCOC(=O)CCCCCCCC1OC1CCCCCCCC,0,0,0,1
"2,4-Pentanedione",316.25,1,CC(=O)CC(C)=O,0,0,0,0
"Cyclohexanemethanol, alpha-methyl-",346.15,1,CC(O)C1CCCCC1,0,0,0,0
"1-Triazene, 1-(4-bromophenyl)-3,3-dimethyl- (9CI)",385.25,1,CN(C)N=Nc1ccc(Br)cc1,0,0,0,0
"Phosphoric acid, 2-chloro-1-(2,4-dichlorophenyl)ethenyl diethyl ester",572.05,1,CCOP(=O)(OCC)OC(=CCl)c1ccc(Cl)cc1Cl,0,0,0,1
L-Arabinopyranose,428.45,1,OC1OC[C@H](O)[C@H](O)[C@H]1O,0,0,0,0
2-Tridecanone,356.45,1,CCCCCCCCCCCC(C)=O,0,0,0,0
"2,3,4,5-tetramethylphenol",389.75,1,Cc1cc(O)c(C)c(C)c1C,0,0,0,0
3chloropropylDimethylChloroSilane,313.15,1,C[Si](C)(Cl)CCCCl,1,1,0,0
"2-Propenoic acid, cyclohexyl ester",344.45,1,C=CC(=O)OC1CCCCC1,0,0,0,1
"Benzenesulfonamide, 4-amino-",469.15,1,Nc1ccc(S(N)(=O)=O)cc1,0,0,0,0
"2-Propen-1-one, 1-(4-bromophenyl)-3-phenyl-",355.55,1,O=C(C=Cc1ccccc1)c1ccc(Br)cc1,0,0,0,0
1H-Benzimidazol-2-amine,477.75,1,Nc1nc2ccccc2[nH]1,0,0,0,0
"2-Butanol, 3,3-dimethyl-",302.05,1,CC(O)C(C)(C)C,0,0,0,0
"2-Propanone, 1,3-dihydroxy-",370.45,1,O=C(CO)CO,0,0,0,0
cyclohexylpropanoate,341,1,C1(CCCCC1)OC(CC)=O,0,0,0,0
"3,5-Pyridinedicarboxylic acid, diisopropyl ester",421.15,1,CC(C)OC(=O)c1cncc(C(=O)OC(C)C)c1,0,0,0,1
 n-Dodecyltrichlorosilane,435.15,1,CCCCCCCCCCCC[Si](Cl)(Cl)Cl,1,1,0,0
"Propane, 1,3-dibromo-",327.55,1,BrCCCBr,0,0,0,0
"2-O-(2-butoxy-2-oxoethyl) 1-O-butyl benzene-1,2-dicarboxylate",472.15,1,CCCCOC(=O)COC(=O)C1=CC=CC=C1C(=O)OCCCC,0,0,0,0
"Benzenamine, 4-(2-(4-methoxyphenyl)ethenyl)-",488.55,1,COc1ccc(C=Cc2ccc(N)cc2)cc1,0,0,0,0
(Z)-acetyloxymethylimino-methyl-oxidoazanium,372.15,1,CC(=O)OCN=[N+](C)[O-],0,0,0,0
3-Penten-2-ol,300.95,1,CC=CC(C)O,0,0,0,0
Hexyldichlorosilane,337.15,1,CCCCCC[SiH](Cl)Cl,1,1,0,0
"9,10-Anthracenedione, 2-amino-",556.15,1,Nc1ccc2c(c1)C(=O)c1ccccc1C2=O,0,0,0,0
2-(2-hydroxyethylamino)ethanol,410.15,1,C(CO)NCCO,0,0,0,0
pentyl propanoate,336,1,CCCCCOC(=O)CC,0,0,0,0
"1-Octanal, 3,7-dimethyl-7-hydroxy-",376.95,1,CC(CC=O)CCCC(C)(C)O,0,0,0,0
"2-Propanone, 1,1,1-trichloro-",337.15,1,CC(=O)C(Cl)(Cl)Cl,0,0,0,0
"Phenol, 4-amino-3,5-dimethyl- (9CI)",406.25,1,Cc1cc(O)cc(C)c1N,0,0,0,0
"(2E,6E)-octa-2,6-diene",286.85,1,C/C=C/CC/C=C/C,0,0,0,0
"1,1dichloropropane",280,1,CCC(Cl)Cl,0,0,0,0
"1,3-diethyl-4-methylbenzene",345.4,1,CCc1ccc(C)c(CC)c1,0,0,0,0
"2-chloro-1,3-benzothiazole",376.95,1,Clc1nc2ccccc2s1,0,0,0,0
2furancarboxaldehyde,333.15,1,O=Cc1ccco1,0,0,0,0
1-Hexenyltrichlorosilane,333.15,1,CCCCC=C[Si](Cl)(Cl)Cl,1,1,0,0
3-(furan-2-yl)propanoic acid,376.15,1,O=C(O)CCc1ccco1,0,0,0,1
"2-chloro-N,N-bis(prop-2-enyl)acetamide",459.15,1,C=CCN(CC=C)C(=O)CCl,0,0,0,0
"octa-1,7-diene",282.15,1,C=CCCCCC=C,0,0,0,0
p-diethylbenzene,328,1,CCc1ccc(CC)cc1,0,0,0,0
"1H-Cyclopentapyrimidine-2,4(3H,5H)-dione, 6,7-dihydro-3-cyclohexyl-",475.55,1,O=c1[nH]c2c(c(=O)n1C1CCCCC1)CCC2,0,0,0,0
"1-Butanamine, N,N,3-trimethyl-",283.15,1,CC(C)CCN(C)C,0,0,0,0
"Benzonitrile, 4-chloro-3-nitro-",399.167,1,N#Cc1ccc(Cl)c([N+](=O)[O-])c1,0,0,0,0
m-cresol,359,1,C1=C(C=CC=C1O)C,0,0,0,0
"2-Naphthalenecarboxylic acid, 3-hydroxy-",463.55,1,O=C(O)c1cc2ccccc2cc1O,0,0,0,1
"2H-Pyran-2-methanol, tetrahydro-",366.45,1,OCC1CCCCO1,0,0,0,0
"2,3,3-trimethylpentane",284.55,1,CCC(C)(C)C(C)C,0,0,0,0
Dipropylether,294.25,1,CCCOCCC,0,0,0,0
"propane-1,3-diol",352.55,1,OCCCO,0,0,0,0
"3,3-dimethyl-4-propan-2-ylideneoxetan-2-one",335.95,1,CC(C)=C1OC(=O)C1(C)C,0,0,0,0
tertbutylbenzene,317,1,CC(C)(C)c1ccccc1,0,0,0,0
VinylDiethylMethylSilane,288.15,1,C=C[Si](C)(CC)CC,1,1,0,0
"Acetonitrile, (o-nitrophenyl)-",411.15,1,N#CCc1ccccc1[N+](=O)[O-],0,0,0,0
"Pentane, 1-chloro-",284.1,1,CCCCCCl,0,0,0,0
"4-methyl-4-phenyl-1,3-dioxane",386.95,1,CC1(c2ccccc2)CCOCO1,0,0,0,0
PROPYLENE GLYCOL MONOMETHYL ETHER,305,1,COCC(C)O,0,0,0,0
dodecan-1-amine,451.15,1,CCCCCCCCCCCCN,0,0,0,0
3-chloropropene,245,1,ClCC=C,0,0,0,0
prop-1-en-2-yl carbonochloridate,289.25,1,C=C(C)OC(=O)Cl,0,0,0,0