compound,flashpoint,pure substance,smiles,is_silicon,is_metallic,is_tin,is_acid
"Hexanedial, 2-hydroxy-",380.75,1,O=CCCCC(O)C=O,0,0,0,0
"2-N,2-N-dimethylbenzene-1,2-diamine",355.45,1,CN(C)c1ccccc1N,0,0,0,0
N-phenylaniline,426.15,1,C1=CC=C(C=C1)NC2=CC=CC=C2,0,0,0,0
"Phenol, 2,4-dimethyl-, phosphate (3:1)",517.75,1,Cc1ccc(O)c(C)c1.Cc1ccc(O)c(C)c1.Cc1ccc(O)c(C)c1.O=P(O)(O)O,0,0,0,0
methyl 2-hydroxy-4-methylbenzoate,370.95,1,COC(=O)c1ccc(C)cc1O,0,0,0,0
"Butanoic acid, 4-bromo-",384.45,1,O=C(O)CCCBr,0,0,0,1
"Phosphonothioic acid, ethyl-, O-ethyl S-methyl ester",352.75,1,CCOP(=O)(CC)SC,0,0,0,1
"(1R,4R)-4,7,7-TRIMETHYLBICYCLO[4.1.0]HEPT-2-ENE",303.25,1,C[C@H]1C=C[C@@H]2C(C1)C2(C)C,0,0,0,0
"2,2-diethoxyethanamine",318.15,1,CCOC(CN)OCC,0,0,0,0
"1,2,4-Benzenetriol, 5-(2-aminoethyl)-",472.45,1,NCCc1cc(O)c(O)cc1O,0,0,0,0
3-methylfuran,251,1,CC1=COC=C1,0,0,0,0
"2-Propenoic acid, 3-(4-chlorophenyl)-, ethyl ester",425.05,1,CCOC(=O)C=Cc1ccc(Cl)cc1,0,0,0,1
1-ethyl-1-methylcyclopentane,279,1,C(C)C1(CCCC1)C,0,0,0,0
hexanal,298,1,C(CCCCC)=O,0,0,0,0
"ethyl 2,2,2-trichloroacetate",338.15,1,CCOC(=O)C(Cl)(Cl)Cl,0,0,0,0
1-bromoethylbenzene,369.15,1,CC(C1=CC=CC=C1)Br,0,0,0,0
"Butanoic acid, 4-(4-chloro-2-methylphenoxy)- (9CI)",464.65,1,Cc1cc(Cl)ccc1OCCCC(=O)O,0,0,0,1
ethyl 5-oxohexanoate,342.55,1,CCOC(=O)CCCC(C)=O,0,0,0,0
2-methylheptan-3-one,317.35,1,CCCCC(=O)C(C)C,0,0,0,0
2-iodobutane,297,1,IC(C)CC,0,0,0,0
"Propane, 1-chloro-2-nitro-",332.95,1,CC(CCl)[N+](=O)[O-],0,0,0,0
oxirane-2-carbaldehyde,304.15,1,C1C(O1)C=O,0,0,0,0
(2E)-2-pentene,228,1,CC/C=C/C,0,0,0,0
"Benzene, nonadecyl-",464.85,1,CCCCCCCCCCCCCCCCCCCc1ccccc1,0,0,0,0
2-tert-butylnaphthalene,394.75,1,CC(C)(C)c1ccc2ccccc2c1,0,0,0,0
"2,4,6-trimethylpyridine",327,1,CC1=NC(=CC(=C1)C)C,0,0,0,0
2-(trichloromethyl)oxirane,340.15,1,C1C(O1)C(Cl)(Cl)Cl,0,0,0,0
2-methylnaphthalene,371.15,1,CC1=CC2=CC=CC=C2C=C1,0,0,0,0
"(1,1'-Biphenyl)-2,5-diol",465.45,1,Oc1ccc(O)c(-c2ccccc2)c1,0,0,0,0
propylbenzene,321.15,1,CCCC1=CC=CC=C1,0,0,0,0
"Tartaric acid, diethyl ester (8CI)",366.15,1,CCOC(=O)C(O)C(O)C(=O)OCC,0,0,0,1
"Hydrazine, 1,1-bis(1-methylethyl)- (9CI)",303.45,1,CC(C)N(N)C(C)C,0,0,0,0
"6,8-Dioxabicyclo(3.2.1)octan-7-one",362.95,1,O=C1OC2CCCC1O2,0,0,0,0
"Phosphorothioic acid, S-(4-chlorophenyl) O,O-dimethyl ester",418.65,1,COP(=O)(OC)Sc1ccc(Cl)cc1,0,0,0,1
"1,2,3,3a,4,5,6,6a-octahydropentalene-1-carboxylic acid",396.85,1,O=C(O)C1CCC2CCCC21,0,0,0,1
isobutyl2-methylpropanoate,311,1,C(C(C)C)OC(C(C)C)=O,0,0,0,0
"Thiophene, 2,5-dihydro-, 1,1-dioxide",385.15,1,O=S1(=O)CC=CC1,0,0,0,0
"Benzenemethanamine, N,N,alpha-trimethyl- (9CI)",337.55,1,CC(c1ccccc1)N(C)C,0,0,0,0
"Piperazine, 1-nitroso-",386.95,1,O=NN1CCNCC1,0,0,0,0
"Phosphoric acid, di(2-ethylhexyl) hydroxypropyl ester",505.75,1,CCCCC(CC)COP(=O)(OCCCO)OCC(CC)CCCC,0,0,0,1
isobutylbutanoate,319,1,C(C(C)C)OC(CCC)=O,0,0,0,0
chloro-diethoxy-sulfanylidene-λ5-phosphane,365.15,1,CCOP(=S)(OCC)Cl,0,0,0,0
3-chloropropyl carbonochloridate,347.65,1,O=C(Cl)OCCCCl,0,0,0,0
cyclohexanethiol,314,1,C1(CCCCC1)S,0,0,0,0
"Butanedioic acid, dicyclohexyl ester (9CI)",455.35,1,O=C(CCC(=O)OC1CCCCC1)OC1CCCCC1,0,0,0,1
trimethylarsane,373.15,1,C[As](C)C,0,1,0,0
"N,N-diethylaniline",361,1,C(C)N(C1=CC=CC=C1)CC,0,0,0,0
"Benzenesulfonamide, 4-amino-N,N-diethyl-",454.25,1,CCN(CC)S(=O)(=O)c1ccc(N)cc1,0,0,0,0
2-dimethylaminoethanol,314,1,CN(CCO)C,0,0,0,0
"Benzenesulfonamide, N-(5-tert-butyl-1,3,4-thiadiazol-2-yl)-",498.75,1,CC(C)(C)c1nnc(NS(=O)(=O)c2ccccc2)s1,0,0,0,0
"Phosphoric acid, diethyl 1-methyl-2-(methylthio)ethenyl ester (9CI)",389.55,1,CCOP(=O)(OCC)OC(C)=CSC,0,0,0,1
3-methylbut-3-en-2-ol,302.75,1,C=C(C)C(C)O,0,0,0,0
"2,5-dimethylhexa-1,5-diene",280,1,CC(=C)CCC(=C)C,0,0,0,0
tert-butylbenzene,333.15,1,CC(C)(C)C1=CC=CC=C1,0,0,0,0
"methyl 2,3-dibromopropanoate",344.25,1,COC(=O)C(Br)CBr,0,0,0,0
"2-methoxy-1,3-dimethylbenzene",340.15,1,COc1c(C)cccc1C,0,0,0,0
(E)-4-methylhept-3-ene,282.35,1,CC/C=C(\C)CCC,0,0,0,0
"4(5H)-Oxazolone, 2-amino-5-phenyl-",416.55,1,NC1=NC(=O)C(c2ccccc2)O1,0,0,0,0
3-Chloropentane,283,1,CCC(Cl)CC,0,0,0,0
"1,3,5-Triazine-2,4,6(1H,3H,5H)-trithione",373.65,1,S=c1[nH]c(=S)[nH]c(=S)[nH]1,0,0,0,0
"1,4-Naphthalenedione, 5,8-dihydroxy- (9CI)",542.35,1,O=C1C=CC(=O)c2c(O)ccc(O)c21,0,0,0,0
"Benzonitrile, 3,5-dibromo-4-hydroxy-",387.55,1,N#Cc1cc(Br)c(O)c(Br)c1,0,0,0,0
hexanedinitrile,366.15,1,C(CCC#N)CC#N,0,0,0,0
"Adipic acid, dihydrazide (8CI)",541.05,1,NNC(=O)CCCCC(=O)NN,0,0,0,1
[4-(hydroxymethyl)cyclohexyl]methanol,439.15,1,C1CC(CCC1CO)CO.C1CC(CCC1CO)CO,0,0,0,0
"Disulfide, butyl 1,2,2-trichloroethyl",380.95,1,CCCCSSC(Cl)C(Cl)Cl,0,0,0,0
2-Aminopyrene,523.75,1,Nc1cc2ccc3cccc4ccc(c1)c2c34,0,0,0,0
Methanesulphonyl fluoride,301.65,1,CS(=O)(=O)F,0,0,0,0
"1,2-dimethyl-3-propylbenzene",345,1,CC1=C(C(=CC=C1)CCC)C,0,0,0,0
"[3-[3-(3,5-ditert-butyl-4-hydroxyphenyl)propanoyloxy]-2,2-bis[3-(3,5-ditert-butyl-4-hydroxyphenyl)propanoyloxymethyl]propyl] 3-(3,5-ditert-butyl-4-hydroxyphenyl)propanoate",570.15,1,CC(C)(C)C1=CC(=CC(=C1O)C(C)(C)C)CCC(=O)OCC(COC(=O)CCC2=CC(=C(C(=C2)C(C)(C)C)O)C(C)(C)C)(COC(=O)CCC3=CC(=C(C(=C3)C(C)(C)C)O)C(C)(C)C)COC(=O)CCC4=CC(=C(C(=C4)C(C)(C)C)O)C(C)(C)C,0,0,0,0
"1-N-phenyl-4-N-propan-2-ylbenzene-1,4-diamine",424.15,1,CC(C)NC1=CC=C(C=C1)NC2=CC=CC=C2,0,0,0,0
"p-Cresol, 2,2'-methylenebis(6-cyclohexyl- (6CI,7CI,8CI)",472.65,1,Cc1cc(Cc2cc(C)cc(C3CCCCC3)c2O)c(O)c(C2CCCCC2)c1,0,0,0,0
"methyl (5Z,8Z,11Z,14Z,17Z)-eicosa-5,8,11,14,17-pentaenoate",377,1,CC/C=C\C/C=C\C/C=C\C/C=C\C/C=C\CCCC(=O)OC,0,0,0,0
"Propionic acid, 2-(2,4,5-trichlorophenoxy)-",455.75,1,CC(Oc1cc(Cl)c(Cl)cc1Cl)C(=O)O,0,0,0,1
1-hexylsulfanylhexane,386.15,1,CCCCCCSCCCCCC,0,0,0,0
piperidin-1-amine,309.25,1,NN1CCCCC1,0,0,0,0
"1,2,3-TRIMETHYL-4-ETHYLBENZENE",346,1,CCc1ccc(C)c(C)c1C,0,0,0,0
"Formamide, N-(4-chlorophenyl)- (9CI)",417.35,1,O=CNc1ccc(Cl)cc1,0,0,0,0
"Benzenamine, 3-bromo-4-methyl- (9CI)",383.15,1,Cc1ccc(N)cc1Br,0,0,0,0
"Benzoxazole, 2,2'-(2,5-thiophenediyl)bis-",509.05,1,c1ccc2oc(-c3ccc(-c4nc5ccccc5o4)s3)nc2c1,0,0,0,0
"Benzenamine, 2,6-dinitro- (9CI)",441.35,1,Nc1c([N+](=O)[O-])cccc1[N+](=O)[O-],0,0,0,0
"Toluene, 4-chloro-2-nitro- (8CI)",393.15,1,Cc1ccc(Cl)cc1[N+](=O)[O-],0,0,0,0
pyran-4-one,374.25,1,O=c1ccocc1,0,0,0,0
furan-2-ylmethyl pentanoate,371.45,1,CCCCC(=O)OCc1ccco1,0,0,0,0
"7H-Dibenzo(c,g)carbazole",519.65,1,c1ccc2c(c1)ccc1[nH]c3ccc4ccccc4c3c12,0,0,0,0
"Phenanthrene, 9-methyl-",430.65,1,Cc1cc2ccccc2c2ccccc12,0,0,0,0
"Benzenepropanal, alpha-methyl-4-(1-methylethyl)-",389.85,1,CC(C=O)Cc1ccc(C(C)C)cc1,0,0,0,0
octadec-1-ene,421,1,CCCCCCCCCCCCCCCCC=C,0,0,0,0
"Phosphonodithioic acid, ethyl-, S-(p-tert-butylphenyl) O-methyl ester",444.35,1,CCP(=S)(OC)Sc1ccc(C(C)(C)C)cc1,0,0,0,1
"1-propanone, 1-(3-methoxyphenyl)-",372.05,1,CCC(=O)c1cccc(OC)c1,0,0,0,0
"Hydrazine, 1,1-diethyl-",295.95,1,CCN(N)CC,0,0,0,0
"2-methyl-1,3-dinitrobenzene",480.15,1,CC1=C(C=CC=C1[N+](=O)[O-])[N+](=O)[O-],0,0,0,0
"diethyl piperazine-1,4-dicarboxylate",417.45,1,CCOC(=O)N1CCN(C(=O)OCC)CC1,0,0,0,0
butylcyclohexane,321,1,C(CCC)C1CCCCC1,0,0,0,0
"Phosphine sulfide, tributyl-",409.65,1,CCCCP(=S)(CCCC)CCCC,0,0,0,0
"1,1-diphenylpropan-2-one",406.95,1,CC(=O)C(c1ccccc1)c1ccccc1,0,0,0,0
"4(1H)-Pyrimidinone, 6-hydroxy-",443.75,1,O=c1cc(O)[nH]cn1,0,0,0,0
2-oxopropyl acetate,325.05,1,CC(=O)COC(C)=O,0,0,0,0
heptanoyl heptanoate,403.05,1,CCCCCCC(=O)OC(=O)CCCCCC,0,0,0,0
"methyl (9Z,12Z,15Z)-octadeca-9,12,15-trienoate",386,1,CC/C=C\C/C=C\C/C=C\CCCCCCCC(=O)OC,0,0,0,0
undecylacetate,384,1,C(CCCCCCCCCC)OC(C)=O,0,0,0,0
"Benzenamine, 3,5-dinitro- (9CI)",467.55,1,Nc1cc([N+](=O)[O-])cc([N+](=O)[O-])c1,0,0,0,0
"Benzoyl chloride, 2,4-dichloro-",376.55,1,O=C(Cl)c1ccc(Cl)cc1Cl,0,0,0,0
N-methylbutylamine,275,1,CNCCCC,0,0,0,0
"1,1,2,2-tetrabromoethane",608.15,1,C(C(Br)Br)(Br)Br,0,0,0,0
2-Bromo-5-nitrotoluene,395.05,1,Cc1cc([N+](=O)[O-])ccc1Br,0,0,0,0
"3,4-dichlorobut-1-ene",386.15,1,C=CC(CCl)Cl,0,0,0,0
1-Chloropentadecane,403.8,1,CCCCCCCCCCCCCCCCl,0,0,0,0
ethyl 2-nitropropanoate,362.55,1,CCOC(=O)C(C)[N+](=O)[O-],0,0,0,0
"dimethyl-1,4-cyclohexanedicarboxylate",383,1,COC(=O)C1CCC(CC1)C(=O)OC,0,0,0,0
"Hexane, tetradecafluoro-",274.35,1,FC(F)(F)C(F)(F)C(F)(F)C(F)(F)C(F)(F)C(F)(F)F,0,0,0,0
Phenanthrene-9-carbaldehyde,542.35,1,O=Cc1cc2ccccc2c2ccccc12,0,0,0,0
"Benzoic acid, 3,5-bis(1,1-dimethylethyl)-4-hydroxy-",447.15,1,CC(C)(C)c1cc(C(=O)O)cc(C(C)(C)C)c1O,0,0,0,1
but-1-en-2-ylbenzene,330.25,1,C=C(CC)c1ccccc1,0,0,0,0
"Cyclohexene, 3-methyl-6-(1-methylethylidene)- (9CI)",337.55,1,CC(C)=C1C=CC(C)CC1,0,0,0,0
"Benzene, 1-bromo-3-nitro-",376.75,1,O=[N+]([O-])c1cccc(Br)c1,0,0,0,0
"Phenol, 2,6-dimethoxy-",373.05,1,COc1cccc(OC)c1O,0,0,0,0
"2-Propenamide, N-methyl-",376.75,1,C=CC(=O)NC,0,0,0,0
Benzenesulphonyl chloride,379.05,1,O=S(=O)(Cl)c1ccccc1,0,0,0,0
"Phosphorothioic acid, O-(p-(methylsulfinyl)phenyl) O,O-dipropyl ester",486.85,1,CCCOP(=S)(OCCC)Oc1ccc(S(C)=O)cc1,0,0,0,1
8-methylnonyl prop-2-enoate,389.15,1,CC(C)CCCCCCCOC(=O)C=C,0,0,0,0
1-fluoro-4-iodobenzene,341.15,1,Fc1ccc(I)cc1,0,0,0,0
"Decane, 1-fluoro-",379.25,1,CCCCCCCCCCF,0,0,0,0
"Ethanamine, 2-(((4-(butylthio)phenyl)phenylmethyl)thio)-N,N-dimethyl-",508.85,1,CCCCSc1ccc(C(SCCN(C)C)c2ccccc2)cc1,0,0,0,0
methyl 4-methylbenzenesulfonate,425.15,1,CC1=CC=C(C=C1)S(=O)(=O)OC,0,0,0,0
nonylamine,347,1,C(CCCCCCCC)N,0,0,0,0
2-[2-(2-acetyloxyethoxy)ethoxy]ethyl acetate,447.15,1,CC(=O)OCCOCCOCCOC(=O)C,0,0,0,0
"Benzoic acid, 2,5-dichloro-",408.95,1,O=C(O)c1cc(Cl)ccc1Cl,0,0,0,1
"Methane, dichloronitro-",296.35,1,O=[N+]([O-])C(Cl)Cl,0,0,0,0
5-ethyl-2-methylpyridine,341.15,1,CCC1=CN=C(C=C1)C,0,0,0,0
"Benzene, 1-(1,1-dimethylethyl)-2,6-dinitro-3,4,5-trimethyl-",447.75,1,Cc1c(C)c([N+](=O)[O-])c(C(C)(C)C)c([N+](=O)[O-])c1C,0,0,0,0
"Pentanoic acid, 4-(1-piperidinyl)cyclohexyl ester (9CI)",381.75,1,CCCCC(=O)OC1CCC(N2CCCCC2)CC1,0,0,0,1
diethylfumarate,366,1,C(C)\C(=C(/C(=O)[O-])\CC)\C(=O)[O-],0,0,0,0
"s-Triazin-2(1H)-one, 4-amino-1-beta-D-ribofuranosyl- (8CI)",550.15,1,Nc1ncn([C@@H]2O[C@H](CO)[C@@H](O)[C@H]2O)c(=O)n1,0,0,0,0
1-EICOSENE,440,1,C=CCCCCCCCCCCCCCCCCCC,0,0,0,0
"3-Cyclohexene-1-carboxylic acid, 5-ethyl-6-methyl-4-phenyl-",456.45,1,CCC1C(c2ccccc2)=CCC(C(=O)O)C1C,0,0,0,1
"9H-Fluorene-2,7-diamine (9CI)",556.75,1,Nc1ccc2c(c1)Cc1cc(N)ccc1-2,0,0,0,0
1-Chloro-1-nitropropane,335.15,1,CCC(Cl)[N+](=O)[O-],0,0,0,0
2-Acetylcyclopentan-1-one,345.95,1,CC(=O)C1CCCC1=O,0,0,0,0
"propane-1,2-diamine",306.15,1,CC(CN)N,0,0,0,0
2-chloro-6-methylphenol,348.15,1,Cc1cccc(Cl)c1O,0,0,0,0
"2,5-Dimethylphenylhydroxylamine",379.25,1,Cc1ccc(C)c(NO)c1,0,0,0,0
"Benzene, 1-chloro-2-ethenyl- (9CI)",333.593,1,C=Cc1ccccc1Cl,0,0,0,0
furan-3-carbaldehyde,321.45,1,O=Cc1ccoc1,0,0,0,0
naphthalen-2-ol,426.15,1,C1=CC=C2C=C(C=CC2=C1)O,0,0,0,0
"Phosphorothioic acid, O-(4-chloro-3-nitrophenyl) O,O-dimethyl ester",438.95,1,COP(=S)(OC)Oc1ccc(Cl)c([N+](=O)[O-])c1,0,0,0,1
triphenyl phosphate,493.15,1,C1=CC=C(C=C1)OP(=O)(OC2=CC=CC=C2)OC3=CC=CC=C3,0,0,0,0
"Phosphonodithioic acid, ethyl-, O-methyl S-phenyl ester",413.05,1,CCP(=S)(OC)Sc1ccccc1,0,0,0,1
"1,1-dichloro-2,2-diethoxyethane",333.15,1,CCOC(OCC)C(Cl)Cl,0,0,0,0
"Benzenamine, 3-methyl-N-phenyl-",420.55,1,Cc1cccc(Nc2ccccc2)c1,0,0,0,0
"Pyrazine, 2-ethyl-",315.95,1,CCc1cnccn1,0,0,0,0
"3(2H)-Pyridazinone, 5-amino-4-chloro-2-phenyl-",415.75,1,Nc1cnn(-c2ccccc2)c(=O)c1Cl,0,0,0,0
[4-(aminomethyl)phenyl]methanamine,300.15,1,C1=CC(=CC=C1CN)CN,0,0,0,0
"1-Propanol, 3-bromo-2,2-bis(bromomethyl)- (8CI)(9CI)",426.95,1,OCC(CBr)(CBr)CBr,0,0,0,0
1-phenylethylacetate,364,1,C1(=CC=CC=C1)C(C)OC(C)=O,0,0,0,0
"1H-Imidazole, 2,4,5-triphenyl-",545.75,1,c1ccc(-c2nc(-c3ccccc3)c(-c3ccccc3)[nH]2)cc1,0,0,0,0
3-[3-[4-(4-bromophenyl)phenyl]-3-hydroxy-1-phenylpropyl]-4-hydroxychromen-2-one,491.15,1,C1=CC=C(C=C1)C(CC(C2=CC=C(C=C2)C3=CC=C(C=C3)Br)O)C4=C(C5=CC=CC=C5OC4=O)O,0,0,0,0
"1,3-Naphthalenediol",458.65,1,Oc1cc(O)c2ccccc2c1,0,0,0,0
"Hexa-1,5-dien-3-ol",302.55,1,C=CCC(O)C=C,0,0,0,0
"2-Propenoic acid, 3-(1H-imidazol-4-yl)-",503.25,1,O=C(O)C=Cc1c[nH]cn1,0,0,0,1
"2,5-Cyclohexadiene-1,4-dione, 2-(1,1-dimethylethyl)- (9CI)",355.75,1,CC(C)(C)C1=CC(=O)C=CC1=O,0,0,0,0
1-chlorononane,347,1,ClCCCCCCCCC,0,0,0,0
BORON METHOXIDE,272.15,1,C[O-].C[O-].C[O-].[B+3],0,1,0,0
"Acetic acid, (2,3-dichloro-4-(2-methylene-1-oxobutyl)phenoxy)-",517.25,1,C=C(CC)C(=O)c1ccc(OCC(=O)O)c(Cl)c1Cl,0,0,0,1
"Benzoic acid, 2-(acetyloxy)-, anhydride (9CI)",499.55,1,CC(=O)Oc1ccccc1C(=O)OC(=O)c1ccccc1OC(C)=O,0,0,0,1
"2,4-dimethylbenzoic acid",404.45,1,Cc1ccc(C(=O)O)c(C)c1,0,0,0,1
N-chloro-N-phenylnitramide,478.15,1,C1=CC=C(C=C1)N([N+](=O)[O-])Cl,0,0,0,0
4-methyl-1-pentyne,249,1,CC(CC#C)C,0,0,0,0
"1,4-Benzenediol, 2,3,5-trimethyl-",464.15,1,Cc1cc(O)c(C)c(C)c1O,0,0,0,0
1-ethoxydodecane,516.15,1,CCCCCCCCCCCCOCC,0,0,0,0
"Thiourea, N-phenyl-N'-2-propenyl-",397.55,1,C=CCNC(=S)Nc1ccccc1,0,0,0,0
"Hydroxylamine, N-nitroso-N-phenyl-",374.45,1,O=NN(O)c1ccccc1,0,0,0,0
2-Chlorododecane,372.7,1,CCCCCCCCCCC(C)Cl,0,0,0,0
"1,2-diphenylethane",402,1,c1ccc(cc1)CCc1ccccc1,0,0,0,0
"1,1-dichloropropane",280,1,ClC(CC)Cl,0,0,0,0
"1,1-dichloro-1-nitropropane",319.05,1,CCC(Cl)(Cl)[N+](=O)[O-],0,0,0,0
dichloro(iodo)methane,304.35,1,ClC(Cl)I,0,0,0,0
"Ethanol, 2-(2-(ethenyloxy)ethoxy)- (9CI)",351.55,1,C=COCCOCCO,0,0,0,0
dipropyl (E)-but-2-enedioate,392.75,1,CCCOC(=O)/C=C/C(=O)OCCC,0,0,0,0
"Ethanone, 1-(3-aminophenyl)-",354.55,1,CC(=O)c1cccc(N)c1,0,0,0,0
propylcyclohexane,304,1,C(CC)C1CCCCC1,0,0,0,0
chloromethylbenzene,340.15,1,C1=CC=C(C=C1)CCl,0,0,0,0
"2,4-dimethylpyrimidine",309.85,1,Cc1ccnc(C)n1,0,0,0,0
methyl 3-methylbut-2-enoate,305.25,1,COC(=O)C=C(C)C,0,0,0,0
1-fluorononane,358.45,1,CCCCCCCCCF,0,0,0,0
"Octanoic acid, 3-methylbutyl ester",377.85,1,CCCCCCCC(=O)OCCC(C)C,0,0,0,1
heptylcyclohexane,366.35,1,CCCCCCCC1CCCCC1,0,0,0,0
"2H-1-Benzopyran-2-one, 4-hydroxy-3-(1-phenylpropyl)-",424.95,1,CCC(c1ccccc1)c1c(O)c2ccccc2oc1=O,0,0,0,0
"methyl 3,4-dimethoxybenzoate",395.35,1,COC(=O)c1ccc(OC)c(OC)c1,0,0,0,0
"(2R,3R,4R,5S,6R)-5-[(2R,3R,4R,5S,6R)-3,4-dihydroxy-6-(hydroxymethyl)-5-sulfanyloxan-2-yl]oxy-6-(hydroxymethyl)-2-methoxyoxane-3,4-diol",265.15,1,COC1C(C(C(C(O1)CO)OC2C(C(C(C(O2)CO)S)O)O)O)O,0,0,0,0
[(E)-1-phenylprop-1-en-2-yl]benzene,397.65,1,C/C(=C\c1ccccc1)c1ccccc1,0,0,0,0
"2,3-dimethylaniline;2,4-dimethylaniline;2,5-dimethylaniline;2,6-dimethylaniline;3,4-dimethylaniline;3,5-dimethylaniline",370.15,1,CC1=CC(=C(C=C1)N)C.CC1=CC(=C(C=C1)C)N.CC1=C(C(=CC=C1)N)C.CC1=C(C(=CC=C1)C)N.CC1=C(C=C(C=C1)N)C.CC1=CC(=CC(=C1)N)C,0,0,0,0
"Benzaldehyde, p-fluoro- (8CI)",329.85,1,O=Cc1ccc(F)cc1,0,0,0,0
"Methacrylic acid, tetrahydrofurfuryl ester (8CI)",364.15,1,C=C(C)C(=O)OCC1CCCO1,0,0,0,1
"1,2-Benzenediol, 3-methyl-",389.85,1,Cc1cccc(O)c1O,0,0,0,0
2-chloro-2-methylpropane,250,1,ClC(C)(C)C,0,0,0,0
"4,4-dimethylheptane",288,1,CC(CCC)(CCC)C,0,0,0,0
octanenitrile,347,1,C(CCCCCCC)#N,0,0,0,0
"1,2,3,4-tetramethylbenzene",341,1,CC1=C(C(=C(C=C1)C)C)C,0,0,0,0
"Phosphonous dichloride, phenyl-",362.45,1,ClP(Cl)c1ccccc1,0,0,0,0
5-hexen-1-ol,320,1,C(CCCC=C)O,0,0,0,0
"1,2,3,4,5,6,7,8-octahydroanthracene",409.55,1,c1c2c(cc3c1CCCC3)CCCC2,0,0,0,0
"2,3-dichloro-1,1,1,2,3,4,4,4-octafluorobutane",273.75,1,FC(F)(F)C(F)(Cl)C(F)(Cl)C(F)(F)F,0,0,0,0
1(2H)-Phthalazinone,483.05,1,O=c1[nH]ncc2ccccc12,0,0,0,0
"1,1-dichloroheptane",339.15,1,CCCCCCC(Cl)Cl,0,0,0,0
"1,3,5-Triazine-2,4-diamine, 6-chloro-N-(1-methylethyl)-",462.55,1,CC(C)Nc1nc(N)nc(Cl)n1,0,0,0,0
"propyl 3,4,5-trihydroxybenzoate",460.15,1,CCCOC(=O)C1=CC(=C(C(=C1)O)O)O,0,0,0,0
"1,3-Dioxolane-2-acetic acid, 2-methyl-, ethyl ester",353.95,1,CCOC(=O)CC1(C)OCCO1,0,0,0,1
2-phenyl-2-methylbutane,332,1,C1(=CC=CC=C1)C(C)(CC)C,0,0,0,0
"Propane, 1,2-epoxy-3-(p-nitrophenoxy)-",450.35,1,O=[N+]([O-])c1ccc(OCC2CO2)cc1,0,0,0,0
"Propanamide, 2-bromo- (9CI)",377.15,1,CC(Br)C(N)=O,0,0,0,0
"3,6-Pyridazinedione, 1,2-dihydro-",515.55,1,O=c1ccc(=O)[nH][nH]1,0,0,0,0
"Proline, 5-oxo-, L-",500.95,1,O=C1CC[C@@H](C(=O)O)N1,0,0,0,0
"2,2,5-trimethylhexane",286,1,CC(C)(CCC(C)C)C,0,0,0,0
"Phosphorothioic acid, O,O-dimethyl O-(4-nitrophenyl) ester",319.25,1,COP(=S)(OC)Oc1ccc([N+](=O)[O-])cc1,0,0,0,1
"N,N',N'-trimethylethane-1,2-diamine",282.55,1,CNCCN(C)C,0,0,0,0
"2,2-dimethyl-3-methylidenebicyclo[2.2.1]heptane",306.15,1,CC1(C2CCC(C2)C1=C)C,0,0,0,0
pivalicanhydride,336,1,C(C(C)(C)C)(=O)OC(C(C)(C)C)=O,0,0,0,0
"Butanoic acid, hexyl ester",354.25,1,CCCCCCOC(=O)CCC,0,0,0,1
"2-Butanethiol, 2-methyl-",272.15,1,CCC(C)(C)S,0,0,0,0
"3-methyloxolane-2,5-dione",381.35,1,CC1CC(=O)OC1=O,0,0,0,0
2-ethylnaphthalene,377.15,1,CCC1=CC2=CC=CC=C2C=C1,0,0,0,0
Butyltrimethylsilane,281.65,1,CCCC[Si](C)(C)C,1,1,0,0
"1-Pentanol, 2-amino-4-methyl-, (S)-",363.75,1,CC(C)C[C@H](N)CO,0,0,0,0
"Thiourea, N,N'-bis(1-methylethyl)-",348.05,1,CC(C)NC(=S)NC(C)C,0,0,0,0
"Oxiranemethanamine, N,N-diethyl- (9CI)",314.25,1,CCN(CC)CC1CO1,0,0,0,0
"Lycopene, all-trans- (8CI)",623.85,1,CC(C)=CCC/C(C)=C/C=C/C(C)=C/C=C/C(C)=C/C=C/C=C(C)/C=C/C=C(C)/C=C/C=C(\C)CCC=C(C)C,0,0,0,0
"Benzene, 1,2-dichloro-4,5-dinitro-",440.05,1,O=[N+]([O-])c1cc(Cl)c(Cl)cc1[N+](=O)[O-],0,0,0,0
4-penten-1-ol,316,1,C(CCC=C)O,0,0,0,0
"5,8,8-trimethyl-3-oxabicyclo[3.2.1]octane-2,4-dione",394.25,1,CC12CCC(C(=O)OC1=O)C2(C)C,0,0,0,0
"Benzoic acid, 4-amino-, 2-(diethylamino)ethyl ester",452.95,1,CCN(CC)CCOC(=O)c1ccc(N)cc1,0,0,0,1
"Benzoic acid, 3,4-dichloro-",419.15,1,O=C(O)c1ccc(Cl)c(Cl)c1,0,0,0,1
"Ethanol, 2-(phenylmethoxy)-",383.15,1,OCCOCc1ccccc1,0,0,0,0
(3-ACRYLOXYPROPYL)TRIS(TRIMETHYLSILOXY)SILANE,366.15,1,C=CC(=O)OCCC[Si](O[Si](C)(C)C)(O[Si](C)(C)C)O[Si](C)(C)C,1,1,0,0
"2,5-bis(trichloromethyl)-1,3-dioxolan-4-one",395.05,1,O=C1OC(C(Cl)(Cl)Cl)OC1C(Cl)(Cl)Cl,0,0,0,0
butan-2-yl carbonochloridate,308.95,1,CCC(C)OC(=O)Cl,0,0,0,0
"10H-Phenothiazine, 10-((1-methyl-3-pyrrolidinyl)methyl)-",487.25,1,CN1CCC(CN2c3ccccc3Sc3ccccc32)C1,0,0,0,0
"9,10-Anthracenedione, 2-chloro-",452.85,1,O=C1c2ccccc2C(=O)c2cc(Cl)ccc21,0,0,0,0
"Pyridine, 2,3,4,5-tetrachloro-6-(trichloromethyl)-",451.55,1,Clc1nc(C(Cl)(Cl)Cl)c(Cl)c(Cl)c1Cl,0,0,0,0
Benzeneacetyl chloride,363.15,1,O=C(Cl)Cc1ccccc1,0,0,0,0
"3,5-DINITROTOLUENE",443,1,Cc1cc([N+](=O)[O-])cc([N+](=O)[O-])c1,0,0,0,0
"Hydrazine, 1,1-di-2-propenyl- (9CI)",327.15,1,C=CCN(N)CC=C,0,0,0,0
2biphenylyl2chloroethylether,433.15,1,ClC(COCC(Cl)c1ccccc1-c1ccccc1)c1ccccc1-c1ccccc1,0,0,0,0
"1,2-Propanediol, diacetate",357.45,1,CC(=O)OCC(C)OC(C)=O,0,0,0,0
1-bromo-2-ethenylbenzene,357.082,1,C=Cc1ccccc1Br,0,0,0,0
TRI-n-BUTYLETHOXYTIN,377.15,1,CCCC[Sn](CCCC)(CCCC)OCC,0,1,1,0
decyl ethanoate,378,1,CCCCCCCCCCOC(=O)C,0,0,0,0
"2H-Pyran, 3,6-dihydro-4-methyl-2-(2-methylpropenyl)- (7CI)",343.95,1,CC(C)=CC1CC(C)=CCO1,0,0,0,0
"1,10-Phenanthroline",437.906,1,c1cnc2c(c1)ccc1cccnc12,0,0,0,0
"9H-Fluorene-9-carboxylic acid, 9-hydroxy-, butyl ester",405.95,1,CCCCOC(=O)C1(O)c2ccccc2-c2ccccc21,0,0,0,1
"Naphthalene, 1,4-dichloro-",410.75,1,Clc1ccc(Cl)c2ccccc12,0,0,0,0
"beta,beta-Carotene-4,4'-dione (9CI)",527.05,1,CC1=C(/C=C/C(C)=C/C=C/C(C)=C/C=C/C=C(C)/C=C/C=C(C)/C=C/C2=C(C)C(=O)CCC2(C)C)C(C)(C)CCC1=O,0,0,0,0
"p-Benzoquinone, 2,5-diphenyl- (8CI)",443.65,1,O=C1C=C(c2ccccc2)C(=O)C=C1c1ccccc1,0,0,0,0
"8-Quinolinol, 5-nitro-",480.35,1,O=[N+]([O-])c1ccc(O)c2ncccc12,0,0,0,0
"dimethoxy-sulfanylidene-(3,5,6-trichloropyridin-2-yl)oxy-λ5-phosphane",455.15,1,COP(=S)(OC)OC1=NC(=C(C=C1Cl)Cl)Cl,0,0,0,0
propan-2-yl nitrate,285.95,1,CC(C)O[N+](=O)[O-],0,0,0,0
"ethyl 2,2-dimethyl-3-oxobutanoate",386.85,1,CCOC(=O)C(C)(C)C(C)=O,0,0,0,0
nonylacetate,364,1,C(CCCCCCCC)OC(C)=O,0,0,0,0
"1,7-Phenanthroline",437.95,1,c1cnc2c(c1)ccc1ncccc12,0,0,0,0
"1,5-dimethyl-1,2,3,4-tetrahydronaphthalene",372.25,1,Cc1cccc2c1CCCC2C,0,0,0,0
"(3E)-2,5-dimethylhexa-1,3,5-triene",291.25,1,C=C(C)/C=C/C(=C)C,0,0,0,0
"4H-1-Benzopyran-4-one, 3,5,7-trihydroxy-2-(4-hydroxyphenyl)-",499.25,1,O=c1c(O)c(-c2ccc(O)cc2)oc2cc(O)cc(O)c12,0,0,0,0
"2,4,6-trifluoropyrimidine",308.85,1,Fc1cc(F)nc(F)n1,0,0,0,0
"N,N-diethylnaphthalen-1-amine",394.25,1,CCN(CC)c1cccc2ccccc12,0,0,0,0
"1,4-Oxathiin-3-carboxamide, 5,6-dihydro-2-methyl-N-phenyl-, 4,4-dioxid",546.05,1,CC1=C(C(=O)Nc2ccccc2)S(=O)(=O)CCO1,0,0,0,0
"1,4-Benzenedicarboxylic acid, 2-amino-, dimethyl ester",445.75,1,COC(=O)c1ccc(C(=O)OC)c(N)c1,0,0,0,1
"Benzenemethanamine, N,N-dimethyl-",327.55,1,CN(C)Cc1ccccc1,0,0,0,0