compound,flashpoint,pure substance,smiles,is_silicon,is_metallic,is_tin,is_acid
"Ethanone, 1-(2,4-dihydroxyphenyl)-",434.25,1,CC(=O)c1ccc(O)cc1O,0,0,0,0
"o-Toluidine, alpha,alpha,alpha-trifluoro- (8CI)",339.15,1,Nc1ccccc1C(F)(F)F,0,0,0,0
"Phenol, 3-(ethylamino)-4-methyl-",412.85,1,CCNc1cc(O)ccc1C,0,0,0,0
3-ethyl-4-methylpyridine,343.251,1,CCc1cnccc1C,0,0,0,0
2-propylfuran,287.95,1,CCCc1ccco1,0,0,0,0
"S-TRIAZINE-2,4,6-TRICARBONITRILE",414.55,1,N#Cc1nc(C#N)nc(C#N)n1,0,0,0,0
"4-Heptanone, 3-(phenylmethyl)-",381.05,1,CCCC(=O)C(CC)Cc1ccccc1,0,0,0,0
1-iodooctadecane,420.95,1,CCCCCCCCCCCCCCCCCCI,0,0,0,0
"Carbamic acid, methyl-, 2,3,4-trimethylphenyl ester",403.45,1,CNC(=O)Oc1ccc(C)c(C)c1C,0,0,0,1
9H-Xanthen-9-ol,429.75,1,OC1c2ccccc2Oc2ccccc21,0,0,0,0
"2,2,4-trimethylpentan-1-ol",330,1,OCC(C)(C)CC(C)C,0,0,0,0
4-methylpent-3-en-2-one,296.15,1,CC(=CC(=O)C)C,0,0,0,0
"1,3-Benzenediol, 4-chloro-",394.75,1,Oc1ccc(Cl)c(O)c1,0,0,0,0
"4H-1-Benzopyran-4-one, 3,5,7-trihydroxy-2-phenyl- (9CI)",475.15,1,O=c1c(O)c(-c2ccccc2)oc2cc(O)cc(O)c12,0,0,0,0
4-vinyl-1-cyclohexene,289,1,C(=C)C1CC=CCC1,0,0,0,0
"Ethanol, 2-(bis(2-ethylhexyl)amino)-",413.05,1,CCCCC(CC)CN(CCO)CC(CC)CCCC,0,0,0,0
"1,5-dimethylpyrrolidin-2-one",362.55,1,CC1CCC(=O)N1C,0,0,0,0
ethyl (2E)-dec-2-enoate,364,1,CCCCCCC/C=C/C(=O)OCC,0,0,0,0
2-(2-methylphenyl)acetonitrile,384.45,1,Cc1ccccc1CC#N,0,0,0,0
"Benzonitrile, 4-methyl-",358.786,1,Cc1ccc(C#N)cc1,0,0,0,0
"Heptane, 3-((ethenyloxy)methyl)- (9CI)",291.75,1,C=COCC(CC)CCCC,0,0,0,0
"1,3-dimethoxypropan-2-ol",331.35,1,COCC(O)COC,0,0,0,0
"1,3-Benzenediamine, 4-chloro-",407.55,1,Nc1ccc(Cl)c(N)c1,0,0,0,0
"2-Propene-1,1-diol, diacetate",351.45,1,C=CC(OC(C)=O)OC(C)=O,0,0,0,0
"Bicyclo(2.2.1)hept-5-ene-2,3-dimethanol, 1,4,5,6,7,7-hexachloro-",475.95,1,OCC1C(CO)C2(Cl)C(Cl)=C(Cl)C1(Cl)C2(Cl)Cl,0,0,0,0
"(1,1'-Biphenyl)-4-carboxaldehyde (9CI)",459.25,1,O=Cc1ccc(-c2ccccc2)cc1,0,0,0,0
"2,3-dimethylheptane;2,4-dimethylheptane;2,3,5-trimethylhexane",297.15,1,CCCCC(C)C(C)C.CCCC(C)CC(C)C.CC(C)CC(C)C(C)C,0,0,0,0
"Benzene, (3,4-epoxybutyl)-",358.65,1,c1ccc(CCC2CO2)cc1,0,0,0,0
"11H-Dibenz(b,e)azepine, 6-(4-methyl-1-piperazinyl)-",491.25,1,CN1CCN(C2=Nc3ccccc3Cc3ccccc32)CC1,0,0,0,0
3-bromotoluene,348,1,BrC=1C=C(C)C=CC1,0,0,0,0
"Benzene, 1-chloro-4-(1-methylethenyl)-",347.039,1,C=C(C)c1ccc(Cl)cc1,0,0,0,0
(E)-1-chloro-3-ethylpent-1-en-4-yn-3-ol,341.55,1,C#CC(O)(/C=C/Cl)CC,0,0,0,0
"4H-Pyran-4-one, 5-hydroxy-2-(hydroxymethyl)-",453.05,1,O=c1cc(CO)occ1O,0,0,0,0
1-methyl-4-propan-2-ylcyclohexan-1-ol,356.55,1,CC(C)C1CCC(C)(O)CC1,0,0,0,0
"3H-Pyrazol-3-one, 4-(dimethylamino)-1,2-dihydro-1,5-dimethyl-2-phenyl-",399.05,1,Cc1c(N(C)C)c(=O)n(-c2ccccc2)n1C,0,0,0,0
"Phenol, 2-bromo-",315.15,1,Oc1ccccc1Br,0,0,0,0
"Pyrazine, 2,5-dimethyl-",337.05,1,Cc1cnc(C)cn1,0,0,0,0
1-(2-Tetrahydrofurfuryloxyethyl)-4-phenylpiperidine-4-carboxylic acid,511.35,1,O=C(O)C1(c2ccccc2)CCN(CCOCC2CCCO2)CC1,0,0,0,1
methylpropanoate,271,1,COC(CC)=O,0,0,0,0
"2-Pyridinecarboxylic acid, 4-amino-3,5,6-trichloro-",481.25,1,Nc1c(Cl)c(Cl)nc(C(=O)O)c1Cl,0,0,0,1
(2-methylphenyl) diphenyl phosphate,505.15,1,CC1=CC=CC=C1OP(=O)(OC2=CC=CC=C2)OC3=CC=CC=C3,0,0,0,0
"Benzenamine, 4-phenoxy-",428.95,1,Nc1ccc(Oc2ccccc2)cc1,0,0,0,0
"Benzenemethanol, alpha-butyl-",383.85,1,CCCCC(O)c1ccccc1,0,0,0,0
"Bicyclo(3.1.0)hexan-3-one, 4-methyl-1-(1-methylethyl)-, (1S,4R,5R)-",337.55,1,CC(C)[C@]12CC(=O)[C@H](C)[C@H]1C2,0,0,0,0
"Benzenemethanol, 2-nitro- (9CI)",404.25,1,O=[N+]([O-])c1ccccc1CO,0,0,0,0
"Cyclohexanol, 3,3,5-trimethyl-, (1R,5R)-rel-",361.15,1,C[C@H]1C[C@@H](O)CC(C)(C)C1,0,0,0,0
"2-ethyl-1,4-dimethylbenzene",329,1,C(C)C1=C(C=CC(=C1)C)C,0,0,0,0
"Phenol, o-ethyl-, phosphate (6CI,7CI)",530.05,1,CCc1ccccc1OP(=O)(O)O,0,0,0,0
2pentylacetate,305,1,CCCCCCC(=O)[O-],0,0,0,0
ETHYL t-BUTYL SULFIDE,282,1,CCSC(C)(C)C,0,0,0,0
isophorone,357,1,O=C1C=C(CC(C)(C)C1)C,0,0,0,0
1-deuteriooxybutane,308.15,1,[2H]OCCCC,0,0,0,0
(2R)-2-[(2R)-oxiran-2-yl]oxirane,318.75,1,C1O[C@H]1[C@H]1CO1,0,0,0,0
"Benzenamine, 2-methyl-4-nitro-",430.35,1,Cc1cc([N+](=O)[O-])ccc1N,0,0,0,0
"Thiophene, 3,4-dichlorotetrahydro-, 1,1-dioxide (8CI)(9CI)",469.15,1,O=S1(=O)CC(Cl)C(Cl)C1,0,0,0,0
propan-2-yl 3-methylbutanoate,307.85,1,CC(C)CC(=O)OC(C)C,0,0,0,0
"Cholestane-3,5,6-triol, (3beta,5alpha,6beta)- (9CI)",485.65,1,CC(C)CCC[C@@H](C)[C@H]1CC[C@H]2[C@@H]3C[C@@H](O)[C@@]4(O)C[C@@H](O)CC[C@]4(C)[C@H]3CC[C@@]21C,0,0,0,0
"1-Propanol, 3-bromo-",367.05,1,OCCCBr,0,0,0,0
Furan-3-methanol,311.45,1,OCc1ccoc1,0,0,0,0
"Piperidine, 4-(5H-dibenzo(a,d)cyclohepten-5-ylidene)-1-methyl-",467.65,1,CN1CCC(=C2c3ccccc3C=Cc3ccccc32)CC1,0,0,0,0
1-methyl-2-phenylbenzene,380.15,1,Cc1ccccc1-c1ccccc1,0,0,0,0
octanoyl octanoate,415.55,1,CCCCCCCC(=O)OC(=O)CCCCCCC,0,0,0,0
"Benzoic acid, 2-amino-4-nitro-",487.85,1,Nc1cc([N+](=O)[O-])ccc1C(=O)O,0,0,0,1
3-methylpiperidin-2-one,411.75,1,CC1CCCNC1=O,0,0,0,0
"2-Propene-1,1-diol, 2-methyl-, diacetate",356.45,1,C=C(C)C(OC(C)=O)OC(C)=O,0,0,0,0
allylethylcarbonate,319,1,C(C=C)CCOC([O-])=O,0,0,0,0
"Propanal, 2,3-dibromo- (9CI)",361.15,1,O=CC(Br)CBr,0,0,0,0
methyl (3E)-non-3-enoate,361,1,CCCCC/C=C/CC(=O)OC,0,0,0,0
"Glutaric acid, 3,3-dimethyl- (8CI)",422.85,1,CC(C)(CC(=O)O)CC(=O)O,0,0,0,1
"Benzenamine, 3-(phenylmethoxy)-",457.55,1,Nc1cccc(OCc2ccccc2)c1,0,0,0,0
"Phenethyl alcohol, alpha,alpha-dimethyl-, acetate",374.95,1,CC(=O)OC(C)(C)Cc1ccccc1,0,0,0,0
"2,5-Pyridinedicarboxylic acid",493.65,1,O=C(O)c1ccc(C(=O)O)nc1,0,0,0,1
"Methane, bromochloro-",284.15,1,ClCBr,0,0,0,0
"Cyclohexanol, 4-(1,1-dimethylethyl)-",378.15,1,CC(C)(C)C1CCC(O)CC1,0,0,0,0
"cis-1,2-dimethylcyclopentane",269,1,C[C@H]1CCC[C@H]1C,0,0,0,0
"Phenol, 2,3,5,6-tetrachloro-",384.85,1,Oc1c(Cl)c(Cl)cc(Cl)c1Cl,0,0,0,0
1-iodooctane,368.15,1,CCCCCCCCI,0,0,0,0
"Butane, 2,2,3,3-tetrachloro-1,1,1,4,4,4-hexafluoro-",318.25,1,FC(F)(F)C(Cl)(Cl)C(Cl)(Cl)C(F)(F)F,0,0,0,0
hexylbenzene,356,1,C(CCCCC)C1=CC=CC=C1,0,0,0,0
1-(bromomethyl)-3-methylbenzene,355.15,1,CC1=CC(=CC=C1)CBr,0,0,0,0
bromomethylbenzene,360.15,1,C1=CC=C(C=C1)CBr,0,0,0,0
furfurylacetate,338,1,C(C1=CC=CO1)CC(=O)[O-],0,0,0,0
"Furo(2,3-b)quinolin-8-ol, 4-methoxy-",476.05,1,COc1c2ccoc2nc2c(O)cccc12,0,0,0,0
ethyl 3-methoxybenzoate,298.55,1,CCOC(=O)c1cccc(OC)c1,0,0,0,0
"Phenanthrene, 3,6-dimethyl- (8CI)(9CI)",441.55,1,Cc1ccc2ccc3ccc(C)cc3c2c1,0,0,0,0
4-Hydroxyquinazoline,410.45,1,Oc1ncnc2ccccc12,0,0,0,0
Diethyl propylmalonate,364.15,1,CCCC(C(=O)OCC)C(=O)OCC,0,0,0,0
2-methylbutan-2-yl acetate,299.15,1,CCC(C)(C)OC(=O)C,0,0,0,0
"2-Propen-1-ol, 3-phenyl-, acetate",403.65,1,CC(=O)OCC=Cc1ccccc1,0,0,0,0
trans-4-methyl-2-pentene,246,1,CC(/C=C/C)C,0,0,0,0
1-methyl-3-nitrobenzene,379.15,1,CC1=CC(=CC=C1)[N+](=O)[O-],0,0,0,0
Di(morpholin-4-yl) disulphide,427.15,1,C1CN(SSN2CCOCC2)CCO1,0,0,0,0
Ethyl 4-cyanobenzoate,412.05,1,CCOC(=O)c1ccc(C#N)cc1,0,0,0,0
methylsalicylate,372,1,COC=1C(C(=O)[O-])=CC=CC1,0,0,0,0
ethyl 4-methyl-3-oxopentanoate,317.15,1,CCOC(=O)CC(=O)C(C)C,0,0,0,0
"4,6(1H,5H)-Pyrimidinedione, 5-ethyldihydro-5-phenyl-",501.35,1,CCC1(c2ccccc2)C(=O)NCNC1=O,0,0,0,0
"2-Imidazolidinone, 1,3-dimethyl-",349.65,1,CN1CCN(C)C1=O,0,0,0,0
"Benzamide, 4-amino-N-(2-(diethylamino)ethyl)- (9CI)",482.05,1,CCN(CC)CCNC(=O)c1ccc(N)cc1,0,0,0,0
tert-amyl alcohol (2-methyl-2-butanol),293,1,CCC(C)(C)O.CCC(C)(C)O,0,0,0,0
(Z)-1-chlorobut-2-ene,378.55,1,C/C=C\CCl,0,0,0,0
"Cyclotetrasiloxane, octaphenyl-",473.15,1,c1ccc([Si]2(c3ccccc3)O[Si](c3ccccc3)(c3ccccc3)O[Si](c3ccccc3)(c3ccccc3)O[Si](c3ccccc3)(c3ccccc3)O2)cc1,1,1,0,0
N-Methyl-N-nitroso-benzenemethanamine,407.25,1,CN(Cc1ccccc1)N=O,0,0,0,0
2-pentylcyclopentanone,351,1,C(CCCC)C1C(CCC1)=O,0,0,0,0
"N,N-dimethylaniline",348,1,CN(C1=CC=CC=C1)C,0,0,0,0
"bis(6-methylheptyl) benzene-1,2-dicarboxylate",505.15,1,CC(C)CCCCCOC(=O)C1=CC=CC=C1C(=O)OCCCCCC(C)C,0,0,0,0
diethyl 3-oxopentanedioate,359.25,1,CCOC(=O)CC(=O)CC(=O)OCC,0,0,0,0
"Urea, N-(2-methylcyclohexyl)-N'-phenyl- (9CI)",394.65,1,CC1CCCCC1NC(=O)Nc1ccccc1,0,0,0,0
2-(2-carbonochloridoyloxyethoxy)ethyl carbonochloridate,391.35,1,O=C(Cl)OCCOCCOC(=O)Cl,0,0,0,0
"1,2-xylene;1,3-xylene;1,4-xylene",298.15,1,CC1=CC=C(C=C1)C.CC1=CC(=CC=C1)C.CC1=CC=CC=C1C,0,0,0,0
"1,3,5-Triazine-2,4,6(1H,3H,5H)-trione, 1,3,5-trichloro-",498.15,1,O=c1n(Cl)c(=O)n(Cl)c(=O)n1Cl,0,0,0,0
pyridin-4-ylmethanamine,381.45,1,NCc1ccncc1,0,0,0,0
3-methylpyridazine,360.95,1,Cc1cccnn1,0,0,0,0
"Anthracene, 9-bromomethyl-",482.15,1,BrCc1c2ccccc2cc2ccccc12,0,0,0,0
"3-prop-2-enylpentane-2,4-dione",349.95,1,C=CCC(C(C)=O)C(C)=O,0,0,0,0
"Benzene, 1,5-difluoro-2,4-dinitro-",412.55,1,O=[N+]([O-])c1cc([N+](=O)[O-])c(F)cc1F,0,0,0,0
Vinylpentamethyldisiloxane,285,1,C(=C)[Si](O[Si](C)(C)C)(C)C,1,1,0,0
[3-(aminomethyl)phenyl]methanamine,390.15,1,C1=CC(=CC(=C1)CN)CN,0,0,0,0
"Benzenemethanol, 2,5-dimethoxy-alpha-(1-((1-methylethyl)amino)ethyl)-",458.45,1,COc1ccc(OC)c(C(O)C(C)NC(C)C)c1,0,0,0,0
"Phenol, 3,5-dichloro-",380.05,1,Oc1cc(Cl)cc(Cl)c1,0,0,0,0
"Hexadecanoic acid, 1-methylethyl ester",435.35,1,CCCCCCCCCCCCCCCC(=O)OC(C)C,0,0,0,1
"Silane, hydroxytriphenyl-",461.95,1,O[Si](c1ccccc1)(c1ccccc1)c1ccccc1,1,1,0,0
2-Bromo-2-methyl-N-phenylpropanamide,442.45,1,CC(C)(Br)C(=O)Nc1ccccc1,0,0,0,0
"Benzimidazole, 4-chloro-6-nitro-2-(trifluoromethyl)-",457.85,1,O=[N+]([O-])c1cc(Cl)c2[nH]c(C(F)(F)F)nc2c1,0,0,0,0
2-phenoxyethyl butanoate,385.45,1,CCCC(=O)OCCOc1ccccc1,0,0,0,0
6-Chloro-2-methylpyridine,346.15,1,Cc1cccc(Cl)n1,0,0,0,0
"xylen-2,6-ol",346,1,Oc1c(C)cccc1C,0,0,0,0
"2-Propanone, 1,1,1,3,3,3-hexachloro-",349.35,1,O=C(C(Cl)(Cl)Cl)C(Cl)(Cl)Cl,0,0,0,0
"Benzenesulfonamide, 4-amino-N-(5,6-dimethoxy-4-pyrimidinyl)-",543.15,1,COc1ncnc(NS(=O)(=O)c2ccc(N)cc2)c1OC,0,0,0,0
3-(oxiran-2-yl)-7-oxabicyclo[4.1.0]heptane,383.15,1,C1CC2C(O2)CC1C3CO3,0,0,0,0
"Urea, 3-cyclooctyl-1,1-dimethyl-",444.35,1,CN(C)C(=O)NC1CCCCCCC1,0,0,0,0
"Pyridine, 2,6-dichloro-",370.65,1,Clc1cccc(Cl)n1,0,0,0,0
ethenyl propanoate,274,1,CCC(=O)OC=C,0,0,0,0
nonanoyl chloride,368.15,1,CCCCCCCCC(=O)Cl,0,0,0,0
"1,3-diphenylbenzene",464.15,1,C1=CC=C(C=C1)C2=CC(=CC=C2)C3=CC=CC=C3,0,0,0,0
"1,3,5-Triazine-2,4-diamine, 6-chloro-N,N,N',N'-tetraethyl- (9CI)",461.45,1,CCN(CC)c1nc(Cl)nc(N(CC)CC)n1,0,0,0,0
1-chloro-2-(2-chloroethylsulfanyl)ethane,378.15,1,C(CCl)SCCCl,0,0,0,0
4-[(4-aminophenyl)methyl]aniline,494.15,1,C1=CC(=CC=C1CC2=CC=C(C=C2)N)N,0,0,0,0
"Phenol, 4-bromo-",363.95,1,Oc1ccc(Br)cc1,0,0,0,0
4-methoxy-1-methyl-2-nitrobenzene,400.35,1,COc1ccc(C)c([N+](=O)[O-])c1,0,0,0,0
"Aniline, o-bromo- (8CI)",364.25,1,Nc1ccccc1Br,0,0,0,0
"1H-Benz(de)isoquinoline-1,3(2H)-dione, 2-((diethoxyphosphinyl)oxy)-",521.65,1,CCOP(=O)(OCC)ON1C(=O)c2cccc3cccc(c23)C1=O,0,0,0,0
nonyl ethanoate,372,1,CCCCCCCCCOC(=O)C,0,0,0,0
"3H-1,3-benzothiazole-2-thione",473.15,1,C1=CC=C2C(=C1)NC(=S)S2,0,0,0,0
"Acetic acid, phenyl-, 2-benzylhydrazide",416.75,1,O=C(Cc1ccccc1)NNCc1ccccc1,0,0,0,1
"Phenol, 2,6-dichloro-",368.05,1,Oc1c(Cl)cccc1Cl,0,0,0,0
2-Methyl-1-(phenylamino)anthraquinone,464.95,1,Cc1ccc2c(c1Nc1ccccc1)C(=O)c1ccccc1C2=O,0,0,0,0
"propane-1,3-diamine",297.15,1,C(CN)CN,0,0,0,0
"2-Benzoxazolinone, 5-chloro-3-methyl-",404.75,1,Cn1c(=O)oc2ccc(Cl)cc21,0,0,0,0
acetyl iodide,290.75,1,CC(=O)I,0,0,0,0
"1,2-Benzenediol, 4-methyl- (9CI)",394.25,1,Cc1ccc(O)c(O)c1,0,0,0,0
"13-Oxabicyclo(10.1.0)trideca-4,8-diene",386.75,1,C1=CCCC2OC2CCC=CCC1,0,0,0,0
allylethylsulfide,289,1,C(C=C)SCC,0,0,0,0
3-methyl-2-butanethiol,282,1,CC(C(C)S)C,0,0,0,0
"2,4,5-Trimethyloxazole",306.45,1,Cc1nc(C)c(C)o1,0,0,0,0
"Valeric acid, 5-bromo-, methyl ester (8CI)",372.55,1,COC(=O)CCCCBr,0,0,0,1
"2-Butanamine, (S)- (9CI)",254.15,1,CC[C@H](C)N,0,0,0,0
"Butanenitrile, 2-amino-2-methyl-",343.85,1,CCC(C)(N)C#N,0,0,0,0
2-methyl-1-[1-(2-methylpropoxy)ethoxy]propane,309.05,1,CC(C)COC(C)OCC(C)C,0,0,0,0
2-METHYL-2-AMINOBUTANE,257,1,CCC(C)(C)N,0,0,0,0
"Benzenemethanol, 3-amino-alpha-methyl- (9CI)",399.25,1,CC(O)c1cccc(N)c1,0,0,0,0
"2,6-diisopropylaniline",396,1,C(C)(C)C1=C(N)C(=CC=C1)C(C)C,0,0,0,0
"Sulfurous acid, 1-((p-tert-butylphenoxy)methyl)propyl o-tolyl ester",554.15,1,CCC(COc1ccc(C(C)(C)C)cc1)OS(=O)Oc1ccccc1C,0,0,0,1
"Pyridine, 2,3,4,5,6-pentachloro-",424.65,1,Clc1nc(Cl)c(Cl)c(Cl)c1Cl,0,0,0,0
3beta-Hydroxy-12-oxo-5beta-cholanoic acid,571.15,1,C[C@H](CCC(=O)O)[C@H]1CC[C@H]2[C@@H]3CC[C@@H]4C[C@@H](O)CC[C@]4(C)[C@H]3CC(=O)[C@@]21C,0,0,0,1
"6-Octenoic acid, 3,7-dimethyl-",436.35,1,CC(C)=CCCC(C)CC(=O)O,0,0,0,1
"Phosphoric acid, tripentyl ester (8CI)(9CI)",435.45,1,CCCCCOP(=O)(OCCCCC)OCCCCC,0,0,0,1
"2,8-Diaminophenazine",576.25,1,Nc1ccc2nc3ccc(N)cc3nc2c1,0,0,0,0
N-butyl-N-propylnitrous amide,367.15,1,CCCCN(CCC)N=O,0,0,0,0
"1(3H)-Isobenzofuranone, 3,3-bis(4-hydroxyphenyl)-",479.65,1,O=C1OC(c2ccc(O)cc2)(c2ccc(O)cc2)c2ccccc21,0,0,0,0
1H-Imidazole,418.15,1,c1c[nH]cn1,0,0,0,0
m-xylene,298,1,C1(=CC(=CC=C1)C)C,0,0,0,0
"3,3-dimethylpentane",254,1,CC(CC)(CC)C,0,0,0,0
"2,4-dimethylpentan-3-ylbenzene",353.65,1,CC(C)C(c1ccccc1)C(C)C,0,0,0,0
"1-Butanone, 1-(4-fluorophenyl)-4-(4-phenyl-1-piperazinyl)- (9CI)",517.95,1,O=C(CCCN1CCN(c2ccccc2)CC1)c1ccc(F)cc1,0,0,0,0
"Pregn-4-ene-3,20-dione",439.85,1,CC(=O)[C@H]1CC[C@H]2[C@@H]3CCC4=CC(=O)CC[C@]4(C)[C@H]3CC[C@]12C,0,0,0,0
1-(4-ethylphenyl)ethanone,367.25,1,CCc1ccc(C(C)=O)cc1,0,0,0,0
"Pyrimidine, 4,6-dichloro-2-phenyl-",392.05,1,Clc1cc(Cl)nc(-c2ccccc2)n1,0,0,0,0
"2-Propenal, 3-(2-methoxyphenyl)-",407.55,1,COc1ccccc1C=CC=O,0,0,0,0
2-ethylhexanal,319,1,C(C)C(C=O)CCCC,0,0,0,0
ethylcinnamate,408,1,C(C)OC(C=CC1=CC=CC=C1)=O,0,0,0,0
Chloro(phenyl)acetyl chloride,377.55,1,O=C(Cl)C(Cl)c1ccccc1,0,0,0,0
"2-Cyclopenten-1-one, 3-methyl-2-(2-pentenyl)-, (Z)-",380.35,1,CC/C=C\CC1=C(C)CCC1=O,0,0,0,0
"1,6-dichlorohexane",347.15,1,C(CCCCl)CCCl,0,0,0,0
1-Piperidineethanol,364.35,1,OCCN1CCCCC1,0,0,0,0
1-[ethenyl(ethoxy)phosphoryl]oxyethane,362.05,1,C=CP(=O)(OCC)OCC,0,0,0,0
2-bromohexane,313,1,BrC(C)CCCC,0,0,0,0
"dimethyl benzene-1,4-dicarboxylate",426.15,1,COC(=O)C1=CC=C(C=C1)C(=O)OC,0,0,0,0
3-pyridin-3-ylpyridine,388.75,1,c1cncc(-c2cccnc2)c1,0,0,0,0
"Dibenzofuran, 3-nitro-",456.55,1,O=[N+]([O-])c1ccc2c(c1)oc1ccccc12,0,0,0,0
"2-ethyl-3,5-dimethylpyridine",337.65,1,CCc1ncc(C)cc1C,0,0,0,0
CYCLOHEXYL PEROXIDE,381,1,C1CCC(OOC2CCCCC2)CC1,0,0,0,0
"Undecanal, 2-methyl-",366.45,1,CCCCCCCCCC(C)C=O,0,0,0,0
"Butanoic acid, 2,6-dibromo-4-cyanophenyl ester",452.45,1,CCCC(=O)Oc1c(Br)cc(C#N)cc1Br,0,0,0,1
"Benzeneethanamine, alpha-methyl-, (alphaS)-",360.55,1,C[C@H](N)Cc1ccccc1,0,0,0,0
dibutyldisulfide,366,1,C(CCC)SSCCCC,0,0,0,0
"9,10-Anthracenedione, 2-ethyl-",428.55,1,CCc1ccc2c(c1)C(=O)c1ccccc1C2=O,0,0,0,0
1H-Benzimidazole,481.589,1,c1ccc2[nH]cnc2c1,0,0,0,0
"Benzene, 1-nitro-4-(2-phenylethenyl)- (9CI)",446.25,1,O=[N+]([O-])c1ccc(C=Cc2ccccc2)cc1,0,0,0,0
"2-Propenoic acid, pentyl ester",321.35,1,C=CC(=O)OCCCCC,0,0,0,1
"Urea, N,N-dimethyl-N'-phenyl-",426.45,1,CN(C)C(=O)Nc1ccccc1,0,0,0,0
"2,6-dimethyl-1H-benzimidazole",459.764,1,Cc1ccc2nc(C)[nH]c2c1,0,0,0,0
butylpropanoate,311,1,C(CCC)OC(CC)=O,0,0,0,0
1-methyl-2-(2-methylphenyl)benzene,380.05,1,Cc1ccccc1-c1ccccc1C,0,0,0,0
"Benzaldehyde, 2,4,5-trimethoxy-",422.15,1,COc1cc(OC)c(OC)cc1C=O,0,0,0,0
"hexane-1,6-diol",375.15,1,C(CCCO)CCO,0,0,0,0
"Acetic acid, alpha-methyl-phenethyl ester",376.15,1,CC(=O)OC(C)Cc1ccccc1,0,0,0,1
"Benzenamine, 3-ethyl- (9CI)",358.15,1,CCc1cccc(N)c1,0,0,0,0
"2-methyl-2,3-dihydro-1-benzofuran",338.35,1,CC1Cc2ccccc2O1,0,0,0,0
"5-[2-[4-(1,2-benzothiazol-3-yl)piperazin-1-yl]ethyl]-6-chloro-1,3-dihydroindol-2-one",271.15,1,C1CN(CCN1CCC2=C(C=C3C(=C2)CC(=O)N3)Cl)C4=NSC5=CC=CC=C54,0,0,0,0
"Ethanedial, dioxime",329.35,1,ON=CC=NO,0,0,0,0
"Hydroperoxide, 1,1-dimethylpropyl",314.35,1,CCC(C)(C)OO,0,0,0,0
"Phosphoric acid, triallyl ester (8CI)",393.25,1,C=CCOP(=O)(OCC=C)OCC=C,0,0,0,1
"(3S,3aR,6R,6aR)-3,6-dimethoxy-2,3,3a,5,6,6a-hexahydrofuro[3,2-b]furan",376.15,1,CO[C@H]1CO[C@@H]2[C@H](OC)CO[C@H]12,0,0,0,0
1-piperidin-2-ylpropan-1-ol,355.45,1,CCC(O)C1CCCCN1,0,0,0,0
tris(4-methylphenyl) phosphate,483.15,1,CC1=CC=C(C=C1)OP(=O)(OC2=CC=C(C=C2)C)OC3=CC=C(C=C3)C,0,0,0,0
1-hexanethiol,303,1,C(CCCCC)S,0,0,0,0
"Morpholine, N-nitroso-",363.65,1,O=NN1CCOCC1,0,0,0,0
2-methoxy-2-methylpropane,247.15,1,CC(C)(C)OC,0,0,0,0
"Phenol, 2-amino-3-methyl-",372.05,1,Cc1cccc(O)c1N,0,0,0,0
"1,2-Benzenediamine, 4-chloro-",408.55,1,Nc1ccc(Cl)cc1N,0,0,0,0
"Cyclotrisiloxane, 2,4,6-trimethyl-2,4,6-tris(3,3,3-trifluoropropyl)-",380.25,1,C[Si]1(CCC(F)(F)F)O[Si](C)(CCC(F)(F)F)O[Si](C)(CCC(F)(F)F)O1,1,1,0,0
"1,3-oxazole",292.039,1,c1cocn1,0,0,0,0
methyl (3Z)-non-3-enoate,361,1,CCCCC/C=C\CC(=O)OC,0,0,0,0
5-Aminopentan-1-ol,338.75,1,NCCCCCO,0,0,0,0
"Benzaldehyde, 4-ethyl-",365.35,1,CCc1ccc(C=O)cc1,0,0,0,0
"Pyridine, 2-(phenylmethyl)-",398.15,1,c1ccc(Cc2ccccn2)cc1,0,0,0,0
S-ethyl N-cyclohexyl-N-ethylcarbamothioate,412.15,1,CCN(C1CCCCC1)C(=O)SCC,0,0,0,0
2-(2-methylpropylamino)ethanol,345.25,1,CC(C)CNCCO,0,0,0,0
2-bromopentane,294,1,BrC(C)CCC,0,0,0,0
"hexa-2,4-diyne",285.45,1,CC#CC#CC,0,0,0,0
"1,3-Dioxolane, 4-(chloromethyl)-2,2-dimethyl-",327.65,1,CC1(C)OCC(CCl)O1,0,0,0,0
2-Nitrocinnamaldehyde,451.25,1,O=CC=Cc1ccccc1[N+](=O)[O-],0,0,0,0
"Arsine oxide, dichloro(2-chlorovinyl)-",384.55,1,O=[As](Cl)(Cl)C=CCl,0,1,0,0
"2-Propyn-1-ol, propanoate",315.25,1,C#CCOC(=O)CC,0,0,0,0
2-Methylheptan-4-ol,337.35,1,CCCC(O)CC(C)C,0,0,0,0
"Propanol, ((1-methyl-1,2-ethanediyl)bis(oxy))bis-",404.35,1,CC(COCCCO)OCCCO,0,0,0,0
"3-acetyl-6-methylpyran-2,4-dione",342.15,1,CC1=CC(=O)C(C(=O)O1)C(=O)C,0,0,0,0
diethylether,233,1,C(C)OCC,0,0,0,0
"4,5-dimethoxy-6-prop-2-enyl-1,3-benzodioxole",378.85,1,C=CCc1cc2c(c(OC)c1OC)OCO2,0,0,0,0
ethyl naphthalene-1-carboxylate,421.85,1,CCOC(=O)c1cccc2ccccc12,0,0,0,0
cyclohexanethiol,316.15,1,C1CCC(CC1)S,0,0,0,0
cyclohexylbenzene,372,1,C1CCC(CC1)c1ccccc1,0,0,0,0
2-tert-butylaniline,372.85,1,CC(C)(C)c1ccccc1N,0,0,0,0
"Biphenyl, 4-isopropyl-",406.45,1,CC(C)c1ccc(-c2ccccc2)cc1,0,0,0,0
methyl pentadecanoate,386,1,CCCCCCCCCCCCCCC(=O)OC,0,0,0,0
"2,4-dimethyl-1H-pyrrole",329.75,1,Cc1c[nH]c(C)c1,0,0,0,0
"2-Propenoic acid, 3-(4-hydroxy-3-methoxyphenyl)-",423.65,1,COc1cc(C=CC(=O)O)ccc1O,0,0,0,1
"Valeric acid, pentyl ester (8CI)",349.65,1,CCCCCOC(=O)CCCC,0,0,0,1
1-chloro-3-methoxypropane,301.05,1,COCCCCl,0,0,0,0
"2,2-diethylpropanedioate",358.15,1,CCC(CC)(C(=O)[O-])C(=O)[O-],0,0,0,0
"9,10-Anthracenedione, 1,5-diamino-4,8-dihydroxy-",619.75,1,Nc1ccc(O)c2c1C(=O)c1c(O)ccc(N)c1C2=O,0,0,0,0
mesityloxide,298,1,C1(=C(C(=CC(=C1)C)C)OC1=C(C=C(C=C1C)C)C)C,0,0,0,0
"1,3-diphenylbenzene",464,1,c1ccc(cc1)c1cccc(c1)c1ccccc1,0,0,0,0
"2-methyl-1,2,3,4-tetrahydronaphthalene",352.85,1,CC1CCc2ccccc2C1,0,0,0,0
"2,4-dichloropentane",309.65,1,CC(Cl)CC(C)Cl,0,0,0,0
3-Chloro-4-methyl-2-oxo-2H-1-benzopyran-7-yl diethyl phosphate,620.15,1,CCOP(=O)(OCC)Oc1ccc2c(C)c(Cl)c(=O)oc2c1,0,0,0,0
"dipentyl benzene-1,2-dicarboxylate",454.15,1,CCCCCOC(=O)C1=CC=CC=C1C(=O)OCCCCC,0,0,0,0
"6-methylheptyl 2-(2,4,5-trichlorophenoxy)acetate",342.15,1,CC(C)CCCCCOC(=O)COC1=CC(=C(C=C1Cl)Cl)Cl,0,0,0,0
"Tartaric acid, diisopropyl ester",382.55,1,CC(C)OC(=O)C(O)C(O)C(=O)OC(C)C,0,0,0,1
"3-[(E)-dodec-2-enyl]oxolane-2,5-dione",451.15,1,CCCCCCCCCC=CCC1CC(=O)OC1=O,0,0,0,0
"1-Propanol, 2-chloro-, phosphate (3:1)",522.85,1,CC(Cl)CO.CC(Cl)CO.CC(Cl)CO.O=P(O)(O)O,0,0,0,0
Benzyl tosylate,476.55,1,Cc1ccc(S(=O)(=O)OCc2ccccc2)cc1,0,0,0,0
trans-3-octene,282,1,CC\C=C\CCCC,0,0,0,0
"Acetamide, N,N'-9H-fluorene-2,7-diylbis- (9CI)",520.05,1,CC(=O)Nc1ccc2c(c1)Cc1cc(NC(C)=O)ccc1-2,0,0,0,0
"9H-Purine-6(1H)-thione, 9-beta-D-ribofuranosyl- (8CI)",659.15,1,OC[C@H]1O[C@@H](n2cnc3c(=S)[nH]cnc32)[C@H](O)[C@@H]1O,0,0,0,0
tripropyl phosphite,363.15,1,CCCOP(OCCC)OCCC,0,0,0,0
oct-1-en-3-ol,341,1,CCCCCC(O)C=C,0,0,0,0
"Androst-4-en-3-one, 17-((1-oxoheptyl)oxy)-, (17beta)-",487.35,1,CCCCCCC(=O)O[C@H]1CC[C@H]2[C@@H]3CCC4=CC(=O)CC[C@]4(C)[C@H]3CC[C@]12C,0,0,0,0
9-Aminophenanthrene,497.55,1,Nc1cc2ccccc2c2ccccc12,0,0,0,0
"1,2-Ethanediamine, N1-ethyl-",283.15,1,CCNCCN,0,0,0,0
"1-chloropyrrolidine-2,5-dione",348.25,1,O=C1CCC(=O)N1Cl,0,0,0,0
"2-Butenedioic acid, 2,3-dihydroxy-, (E)- (9CI)",475.363,1,O=C(O)/C(O)=C(\O)C(=O)O,0,0,0,1
4-nitro-N-phenylaniline,463.15,1,C1=CC=C(C=C1)NC2=CC=C(C=C2)[N+](=O)[O-],0,0,0,0
"4H-Pyran-4-one, tetrahydro-2,6-dimethyl-",338.65,1,CC1CC(=O)CC(C)O1,0,0,0,0
"2-Propenamide, N-(butoxymethyl)-",397.05,1,C=CC(=O)NCOCCCC,0,0,0,0