compound,flashpoint,pure substance,smiles,is_silicon,is_metallic,is_tin,is_acid
"hexane-1,6-diamine",354.15,1,C(CCCN)CCN,0,0,0,0
"Isobenzofuran, 1,3-dihydro-",336.15,1,c1ccc2c(c1)COC2,0,0,0,0
"2,2-dimethylbutanoyl chloride",303.35,1,CCC(C)(C)C(=O)Cl,0,0,0,0
3-chloropropanal,299.55,1,O=CCCCl,0,0,0,0
dioctyl hydrogen phosphate,469.15,1,CCCCCCCCOP(=O)(O)OCCCCCCCC,0,0,0,0
Isopropenyl methyl ether,244.15,1,C=C(C)OC,0,0,0,0
"Urea, (phenylmethyl)- (9CI)",398.05,1,NC(=O)NCc1ccccc1,0,0,0,0
n-Butyl phenyl ether,355.15,1,CCCCOc1ccccc1,0,0,0,0
3-methylpentan-1-ol,331,1,OCCC(C)CC,0,0,0,0
"Morphinan-6-one, 17-allyl-4,5alpha-epoxy-3,14-dihydroxy- (8CI)",549.25,1,C=CCN1CC[C@]23c4c5ccc(O)c4O[C@H]2C(=O)CC[C@@]3(O)[C@H]1C5,0,0,0,0
"2,5-bis(tert-butylperoxy)-2,5-dimethylhexane",358.15,1,CC(C)(C)OOC(C)(C)CCC(C)(C)OOC(C)(C)C,0,0,0,0
"10H-Phenothiazine-10-propanamine, N,N-dimethyl-2-(trifluoromethyl)-",485.55,1,CN(C)CCCN1c2ccccc2Sc2ccc(C(F)(F)F)cc21,0,0,0,0
"2H-1-Benzopyran-2-one, 7-methoxy-8-(3-methyl-2-butenyl)- (9CI)",440.75,1,COc1ccc2ccc(=O)oc2c1CC=C(C)C,0,0,0,0
"butane-1,3-diamine",325.15,1,CC(CCN)N,0,0,0,0
"Benzonitrile, 3-hydroxy-",380.75,1,N#Cc1cccc(O)c1,0,0,0,0
"o-Cresol, 4,6-dichloro- (8CI)",381.05,1,Cc1cc(Cl)cc(Cl)c1O,0,0,0,0
2-ethyl-6-methylpyridine,316.55,1,CCc1cccc(C)n1,0,0,0,0
1-ethoxy-4-ethylbenzene,355.45,1,CCOc1ccc(CC)cc1,0,0,0,0
4-(2-aminopropan-2-yl)-1-methylcyclohexan-1-amine,366.15,1,CC1(CCC(CC1)C(C)(C)N)N,0,0,0,0
1-chloro-2-ethoxybenzene,355.45,1,CCOc1ccccc1Cl,0,0,0,0
1-[bis(aziridin-1-yl)phosphoryl]aziridine,436.15,1,C1CN1P(=O)(N2CC2)N3CC3,0,0,0,0
"Benzenamine, 4-(2-(4-nitrophenyl)ethenyl)-",477.85,1,Nc1ccc(C=Cc2ccc([N+](=O)[O-])cc2)cc1,0,0,0,0
"Benzene, 1-bromo-4-fluoro-",326.15,1,Fc1ccc(Br)cc1,0,0,0,0
"2,4-Hexanediol",374.15,1,CCC(O)CC(C)O,0,0,0,0
"methyl (6E,9E,12E)-octadeca-6,9,12-trienoate",335,1,CCCCC/C=C/C/C=C/C/C=C/CCCCC(=O)OC,0,0,0,0
benzoyl bromide,362.85,1,O=C(Br)c1ccccc1,0,0,0,0
acetophenone,350,1,C(C)(=O)C1=CC=CC=C1,0,0,0,0
pentanoicanhydride,374,1,C(CCCC)(=O)OC(CCCC)=O,0,0,0,0
"1,4-Dibromo-2-nitrobenzene",388.05,1,O=[N+]([O-])c1cc(Br)ccc1Br,0,0,0,0
"Phosphorothioic acid, O-(3-chloro-4-nitrophenyl) O,O-diethyl ester",464.65,1,CCOP(=S)(OCC)Oc1ccc([N+](=O)[O-])c(Cl)c1,0,0,0,1
pyridin-2-ylmethanamine,363.15,1,NCc1ccccn1,0,0,0,0
"3,4,5-Trichloroaniline",417.35,1,Nc1cc(Cl)c(Cl)c(Cl)c1,0,0,0,0
"Succinimide, N-hydroxy- (8CI)",385.65,1,O=C1CCC(=O)N1O,0,0,0,0
"Benzene, 1,2-methylenedioxy-4-propyl-",372.45,1,CCCc1ccc2c(c1)OCO2,0,0,0,0
"s-Triazine, 2,4-diamino-6-methyl- (8CI)",525.15,1,Cc1nc(N)nc(N)n1,0,0,0,0
2-bromoethylcyclohexane,354.75,1,BrCCC1CCCCC1,0,0,0,0
3-methylfuran,251.15,1,Cc1ccoc1,0,0,0,0
ACRYLOXY PROPIONIC acid,419,1,C=CC(=O)OC(C)C(=O)O,0,0,0,1
"Benzenesulfonamide, 4-amino-N-(3,4-dimethyl-5-isoxazolyl)-",518.55,1,Cc1noc(NS(=O)(=O)c2ccc(N)cc2)c1C,0,0,0,0
"o-Xylene, alpha,alpha'-dibromo- (8CI)",406.75,1,BrCc1ccccc1CBr,0,0,0,0
4-Fluoro-N-methylaniline,336.65,1,CNc1ccc(F)cc1,0,0,0,0
"Urea, 1-(1-naphthyl)-2-thio-",455.25,1,NC(=S)Nc1cccc2ccccc12,0,0,0,0
"2-Furanacrylic acid, alpha-cyano-5-nitro-, methyl ester",451.75,1,COC(=O)C(C#N)=Cc1ccc([N+](=O)[O-])o1,0,0,0,1
"Benzenesulfonyl chloride, p-nitro- (8CI)",438.45,1,O=[N+]([O-])c1ccc(S(=O)(=O)Cl)cc1,0,0,0,0
2-bromo-1-phenylpropan-1-one,348.75,1,CC(Br)C(=O)c1ccccc1,0,0,0,0
"2-Furanmethanol, 2-acetate",338.15,1,CC(=O)OCc1ccco1,0,0,0,0
"Benzoic acid, 2-hydroxy-3-methyl-, methyl ester",368.65,1,COC(=O)c1cccc(C)c1O,0,0,0,1
"Phenol, 5-amino-2-methyl-",389.45,1,Cc1ccc(N)cc1O,0,0,0,0
"Urea, 1,3-dimethyl-2-thio-",473.15,1,CNC(=S)NC,0,0,0,0
"6-methyl-N-phenyl-2,3-dihydro-1,4-oxathiine-5-carboxamide",476.15,1,CC1=C(SCCO1)C(=O)NC2=CC=CC=C2,0,0,0,0
"(1Z,3Z)-1,2,3,4-tetrachlorobuta-1,3-diene",355.85,1,Cl/C=C(Cl)/C(Cl)=C/Cl,0,0,0,0
"Pyridine, 3-ethenyl-",324.05,1,C=Cc1cccnc1,0,0,0,0
"3,3-dimethylbutan-1-ol",321,1,OCCC(C)(C)C,0,0,0,0
(Ethylsulphonyl)benzene,448.25,1,CCS(=O)(=O)c1ccccc1,0,0,0,0
"Pyridine, 5-ethyl-2-methyl-, 1-oxide (9CI)",406.05,1,CCc1ccc(C)[n+]([O-])c1,0,0,0,0
"Carbamic acid, methyl-, 4-(methylsulfinyl)-3,5-xylyl ester",468.25,1,CNC(=O)Oc1cc(C)c(S(C)=O)c(C)c1,0,0,0,1
"Silane, pentyltrimethoxy-",325.35,1,CCCCC[Si](OC)(OC)OC,1,1,0,0
"Ethanol, 2-methoxy-, carbamate",404.15,1,COCCOC(N)=O,0,0,0,0
2-fluorobenzoyl chloride,355.15,1,C1=CC=C(C(=C1)C(=O)Cl)F,0,0,0,0
3-chloro-2-methylprop-1-ene,260.15,1,CC(=C)CCl,0,0,0,0
"butane-2,3-dione",300.15,1,CC(=O)C(=O)C,0,0,0,0
"3,5-dibromopyridine",357.45,1,Brc1cncc(Br)c1,0,0,0,0
"9,10-Anthracenedione, 1,2-dihydroxy-",501.15,1,O=C1c2ccccc2C(=O)c2c1ccc(O)c2O,0,0,0,0
dipropyldisulfide,339,1,C(CC)SSCCC,0,0,0,0
"Phosphorous acid, 2-ethylhexyl octyl phenyl ester",529.85,1,CCCCCCCCOP(OCC(CC)CCCC)Oc1ccccc1,0,0,0,1
N-methyl-1-phenylmethanamine,350.95,1,CNCc1ccccc1,0,0,0,0
"2,6-Octadienoic acid, 3,7-dimethyl-",474.25,1,CC(C)=CCCC(C)=CC(=O)O,0,0,0,1
1-bromohexadecane,412.95,1,CCCCCCCCCCCCCCCCBr,0,0,0,0
"Acetic acid, phenyl-, 3,7-dimethyl-6-octenyl ester",394.35,1,CC(C)=CCCC(C)CCOC(=O)Cc1ccccc1,0,0,0,1
"1,2-dichloro-2-methylbutane",308.95,1,CCC(C)(Cl)CCl,0,0,0,0
Inosine,670.143,1,OC[C@H]1O[C@@H](n2cnc3c(O)ncnc32)[C@H](O)[C@@H]1O,0,0,0,0
"1,2-Diethyldiaziridine",275.75,1,CCN1CN1CC,0,0,0,0
3-methylbutanamide,367.25,1,CC(C)CC(N)=O,0,0,0,0
"1,2,4,5-tetrafluoro-3,6-dimethylbenzene",320.35,1,Cc1c(F)c(F)c(C)c(F)c1F,0,0,0,0
"1,3-dichloro-5,5-dimethylimidazolidine-2,4-dione",447.15,1,CC1(C(=O)N(C(=O)N1Cl)Cl)C,0,0,0,0
"Arsine oxide, trimethyl-",329.55,1,C[As](C)(C)=O,0,1,0,0
2-chloro-3-methylphenol,351.25,1,Cc1cccc(O)c1Cl,0,0,0,0
1-ethylpiperidin-3-amine,333.75,1,CCN1CCCC(N)C1,0,0,0,0
2-chlorobutane,258,1,ClC(C)CC,0,0,0,0
"3,4-dimethylhexan-2-ol",332.35,1,CCC(C)C(C)C(C)O,0,0,0,0
"1,1'-biphenyl",386.15,1,C1=CC=C(C=C1)C2=CC=CC=C2,0,0,0,0
"Benzaldehyde, 2-hydroxy-, oxime",405.45,1,ON=Cc1ccccc1O,0,0,0,0
N-(2-AMINOETHYL)-3-AMINOPROPYLMETHYLDIMETHOXYSILANE,363.15,1,CO[Si](C)(CCCNCCN)OC,1,1,0,0
2-chlorobenzenethiol,361.45,1,Sc1ccccc1Cl,0,0,0,0
2-hydroxybenzaldehyde,351.15,1,C1=CC=C(C(=C1)C=O)O,0,0,0,0
"4(1H)-Pyrimidinone, 6-methyl-2-(1-methylethyl)-",366.35,1,Cc1cc(=O)nc(C(C)C)[nH]1,0,0,0,0
pyridine,293.15,1,C1=CC=NC=C1,0,0,0,0
"Benzene, 1-bromo-3-methyl-",333.15,1,Cc1cccc(Br)c1,0,0,0,0
"2,3-dimethylhex-1-ene",281,1,CCCC(C)C(=C)C,0,0,0,0
"Benzenamine, 3,5-dichloro-",406.15,1,Nc1cc(Cl)cc(Cl)c1,0,0,0,0
3-nitrothiophene,363.65,1,O=[N+]([O-])c1ccsc1,0,0,0,0
"Propanoic acid, 2-(2,4-dichlorophenoxy)-",437.65,1,CC(Oc1ccc(Cl)cc1Cl)C(=O)O,0,0,0,1
"Ether, fluoromethyl 2,2,2-trifluoro-1-(trifluoromethyl)ethyl-",331.15,1,FCOC(C(F)(F)F)C(F)(F)F,0,0,0,0
"2-Propenoic acid, 3-phenyl-, 2-propenyl ester",436.65,1,C=CCOC(=O)C=Cc1ccccc1,0,0,0,1
"bis(8-methylnonyl) benzene-1,2-dicarboxylate",505.15,1,CC(C)CCCCCCCOC(=O)C1=CC=CC=C1C(=O)OCCCCCCCC(C)C,0,0,0,0
ACETOXYETHYLTRICHLOROSILANE,355.15,1,CC(=O)OCC[Si](Cl)(Cl)Cl,1,1,0,0
"Acetamide, N-(3-hydroxy-9H-fluoren-2-yl)- (9CI)",523.55,1,CC(=O)Nc1cc2c(cc1O)-c1ccccc1C2,0,0,0,0
ethyl but-2-ynoate,326.35,1,CC#CC(=O)OCC,0,0,0,0
"1,2,4-trichlorobenzene",383.15,1,C1=CC(=C(C=C1Cl)Cl)Cl,0,0,0,0
di-tert-butyldisulfide,340,1,C(C)(C)(C)SSC(C)(C)C,0,0,0,0
"1,3-diethyl-1,3-diphenylurea",423.15,1,CCN(C1=CC=CC=C1)C(=O)N(CC)C2=CC=CC=C2,0,0,0,0
3-chloro-3-methylbut-1-yne,277.55,1,C#CC(C)(C)Cl,0,0,0,0
undecylbenzene,414.15,1,CCCCCCCCCCCC1=CC=CC=C1,0,0,0,0
Bis(2-hydroxy-5-chlorophenyl)sulfide,478.95,1,Oc1ccc(Cl)cc1Sc1cc(Cl)ccc1O,0,0,0,0
"1,1,3,3-tetramethoxypropane",327.55,1,COC(CC(OC)OC)OC,0,0,0,0
"1,2-Benzenediol, 4-chloro-",388.45,1,Oc1ccc(Cl)cc1O,0,0,0,0
"1,1,1-trifluoro-2-(2,2,2-trifluoroethoxy)ethane",274.85,1,FC(F)(F)COCC(F)(F)F,0,0,0,0
(9Z)-cycloheptadec-9-en-1-one,430.25,1,O=C1CCCCCCC/C=C\CCCCCCC1,0,0,0,0
"Morphinan-6-one, 4,5alpha-epoxy-3,14-dihydroxy-17-methyl- (8CI)",540.606,1,CN1CC[C@]23c4c5ccc(O)c4O[C@H]2C(=O)CC[C@@]3(O)[C@H]1C5,0,0,0,0
"2-Propenoic acid, 2-methyl-, 2-(diethylamino)ethyl ester",349.85,1,C=C(C)C(=O)OCCN(CC)CC,0,0,0,1
"3H-1,4-Benzodiazepine, 7-chloro-2-(methylamino)-5-phenyl-, 4-oxide",559,1,CNC1=Nc2ccc(Cl)cc2C(c2ccccc2)=[N+]([O-])C1,0,0,0,0
"Cyclohexanemethylamine, N-methyl-",314.45,1,CNCC1CCCCC1,0,0,0,0
"Benzenamine, N,N-dimethyl-4-(2-(4-nitrophenyl)ethenyl)-",475.95,1,CN(C)c1ccc(C=Cc2ccc([N+](=O)[O-])cc2)cc1,0,0,0,0
"Benzidine, 2-nitro-",486.85,1,Nc1ccc(-c2ccc(N)cc2[N+](=O)[O-])cc1,0,0,0,0
"Benzoic acid, p-(octyloxy)- (8CI)",406.25,1,CCCCCCCCOc1ccc(C(=O)O)cc1,0,0,0,1
"2-Propenoic acid, 3-phenyl-, methyl ester",414.45,1,COC(=O)C=Cc1ccccc1,0,0,0,1
"Pyrene, 1-(chloromethyl)-",474.35,1,ClCc1ccc2ccc3cccc4ccc1c2c34,0,0,0,0
"2-Propanol, 1,1',1'',1'''-(1,2-ethanediyldinitrilo)tetrakis-",373.15,1,CC(O)CN(CCN(CC(C)O)CC(C)O)CC(C)O,0,0,0,0
aniline;hydrochloride,466.15,1,C1=CC=C(C=C1)N.Cl,0,0,0,0
"Maleic anhydride, dihydroxy-, dibutyrate",435.65,1,CCCC(=O)O.CCCC(=O)O.O=C1OC(=O)C(O)=C1O,0,0,0,0
isobutylmethacrylate,314,1,C(C(C)C)OC(C(=C)C)=O,0,0,0,0
"1,1,1,2,3,3,3-heptachloropropane",372.75,1,ClC(C(Cl)(Cl)Cl)C(Cl)(Cl)Cl,0,0,0,0
"2,3,5-trimethylpyridine",315.95,1,Cc1cnc(C)c(C)c1,0,0,0,0
"2,3-Naphthalenediamine",485.45,1,Nc1cc2ccccc2cc1N,0,0,0,0
"1,1,1,2,2,3,3,4,4,5,5,6,6,7,7,8,8,8-octadecafluorooctane",303.85,1,FC(F)(F)C(F)(F)C(F)(F)C(F)(F)C(F)(F)C(F)(F)C(F)(F)C(F)(F)F,0,0,0,0
ETHYL ISOBUTYL ETHER,259,1,CCOCC(C)C,0,0,0,0
"4-Chloro-2,2-dimethylpentane",302.9,1,CC(Cl)CC(C)(C)C,0,0,0,0
"Furan, 2,5-dimethyl-",271.45,1,Cc1ccc(C)o1,0,0,0,0
ethyl N-phenylcarbamate,352.35,1,CCOC(=O)Nc1ccccc1,0,0,0,0
"Methanesulfenamide, 1,1-dichloro-N-((dimethylamino)sulfonyl)-1-fluoro-",430.65,1,CN(C)S(=O)(=O)NSC(F)(Cl)Cl,0,0,0,0
"4-Pyridinemethanol, 3,3'-(dithiobis(methylene))bis(5-hydroxy-6-methyl-",676.15,1,Cc1ncc(CSSCc2cnc(C)c(O)c2CO)c(CO)c1O,0,0,0,0
"Adenine, N-benzyl-9-(tetrahydro-2H-pyran-2-yl)- (8CI)",554.25,1,c1ccc(CNc2ncnc3c2ncn3C2CCCCO2)cc1,0,0,0,0
2-Pyrazinecarboxamide,443.05,1,NC(=O)c1cnccn1,0,0,0,0
1-Chloro-2-methylbutane,283,1,CCC(C)CCl,0,0,0,0
methyloctanoate,342,1,COC(CCCCCCC)=O,0,0,0,0
"Benzaldehyde, 2-nitro-",417.15,1,O=Cc1ccccc1[N+](=O)[O-],0,0,0,0
"Phenol, 2,3,4,5-tetrachloro-",401.95,1,Oc1cc(Cl)c(Cl)c(Cl)c1Cl,0,0,0,0
1-chloro-1-nitroethane,302.85,1,CC(Cl)[N+](=O)[O-],0,0,0,0
2-methylcyclopentanone,299,1,CC1C(CCC1)=O,0,0,0,0
N-acetyl-N-ethylacetamide,347.55,1,CCN(C(C)=O)C(C)=O,0,0,0,0
thiomorpholine,333.15,1,C1CSCCN1,0,0,0,0
"Propanamide, N-(3,4-dichlorophenyl)-",450.65,1,CCC(=O)Nc1ccc(Cl)c(Cl)c1,0,0,0,0
"2-Pentanone, 5-hydroxy- (8CI)(9CI)",366.15,1,CC(=O)CCCO,0,0,0,0
"Benzene, 1-chloro-3-(2-(4-nitrophenyl)ethenyl)-, (E)-",455.55,1,O=[N+]([O-])c1ccc(/C=C/c2cccc(Cl)c2)cc1,0,0,0,0
"N,N'-Bis(3-aminopropyl)piperazine",436.15,1,NCCCN1CCN(CCCN)CC1,0,0,0,0
2-methylundecane,334,1,CC(C)CCCCCCCCC,0,0,0,0
1-bromo-4-ethoxybenzene,375.95,1,CCOc1ccc(Br)cc1,0,0,0,0
7-methyl-1-benzofuran,344.55,1,Cc1cccc2ccoc12,0,0,0,0
3-methylpyridine,309.15,1,CC1=CN=CC=C1,0,0,0,0
"1,3-Benzenediol, 5-methyl-",432.15,1,Cc1cc(O)cc(O)c1,0,0,0,0
"Ethanol, 2-((1,1-dimethylethyl)amino)-",342.05,1,CC(C)(C)NCCO,0,0,0,0
"Butanoic acid, phenylmethyl ester",421.722,1,CCCC(=O)OCc1ccccc1,0,0,0,1
"Isoquinoline, 1,2,3,4-tetrahydro-",372.05,1,c1ccc2c(c1)CCNC2,0,0,0,0
"Butyric acid, 2-ethyl-2-phenyl-, 2-(2-(diethylamino)ethoxy)ethyl ester",481.65,1,CCN(CC)CCOCCOC(=O)C(CC)(CC)c1ccccc1,0,0,0,1
but-3-enylbenzene,333.15,1,C=CCCc1ccccc1,0,0,0,0
"Silane, pentyltriethoxy-",351.05,1,CCCCC[Si](OCC)(OCC)OCC,1,1,0,0
"Benzene, 1-(bromomethyl)-4-nitro-",410.95,1,O=[N+]([O-])c1ccc(CBr)cc1,0,0,0,0
"5-Furancarboxaldehyde, 5-nitro- (9CI)",306.15,1,O=CC1([N+](=O)[O-])C=CCO1,0,0,0,0
"p-Phenylenediamine, 2,3-dimethyl-",424.65,1,Cc1c(N)ccc(N)c1C,0,0,0,0
2-propan-2-ylpyridine,296.35,1,CC(C)c1ccccn1,0,0,0,0
"Pyridine, 4-phenyl-",384.25,1,c1ccc(-c2ccncc2)cc1,0,0,0,0
"1,2-diphenylbenzene",436.15,1,C1=CC=C(C=C1)C2=CC=CC=C2C3=CC=CC=C3,0,0,0,0
1-bromoheptadecane,418.55,1,CCCCCCCCCCCCCCCCCBr,0,0,0,0
1-chloroheptane,314,1,ClCCCCCCC,0,0,0,0
"Benzonitrile, 2,6-dichloro-",399.95,1,N#Cc1c(Cl)cccc1Cl,0,0,0,0
anisole,325.15,1,COC1=CC=CC=C1,0,0,0,0
"9,10-Anthracenedione, 2,6-diamino-",560.75,1,Nc1ccc2c(c1)C(=O)c1ccc(N)cc1C2=O,0,0,0,0
"1H-Pyrazole, 4,5-dihydro-1,3,5-triphenyl-",501.45,1,c1ccc(C2=NN(c3ccccc3)C(c3ccccc3)C2)cc1,0,0,0,0
"1,2,3,4,5-pentafluoro-6-methylbenzene",307.55,1,Cc1c(F)c(F)c(F)c(F)c1F,0,0,0,0
"Benzenamine, N,N,3-trimethyl-4-(phenylazo)- (9CI)",463.35,1,Cc1cc(N(C)C)ccc1N=Nc1ccccc1,0,0,0,0
"Butyric acid, 2-methyl-, ethyl ester (8CI)",306.55,1,CCOC(=O)C(C)CC,0,0,0,1
"Acetamide, 2-fluoro-N-phenyl- (9CI)",418.25,1,O=C(CF)Nc1ccccc1,0,0,0,0
"2-Buten-1-ol, 3-methyl-, acetate",322.15,1,CC(=O)OCC=C(C)C,0,0,0,0
2-(4-methylcyclohex-3-en-1-yl)propan-2-ol,367,1,CC1=CCC(CC1)C(C)(C)O,0,0,0,0
methyl 2-bromobenzoate,372.75,1,COC(=O)c1ccccc1Br,0,0,0,0
"Benzamide, N,N'-(dithiodi-2,1-phenylene)bis-",523.15,1,O=C(Nc1ccccc1SSc1ccccc1NC(=O)c1ccccc1)c1ccccc1,0,0,0,0
"1,4-Benzenediamine, N,N'-bis(1-ethyl-3-methylpentyl)-",523.25,1,CCC(C)CC(CC)Nc1ccc(NC(CC)CC(C)CC)cc1,0,0,0,0
ethyl 3-bromobenzoate,385.15,1,CCOC(=O)c1cccc(Br)c1,0,0,0,0
nonylcyclopentane,377.35,1,CCCCCCCCCC1CCCC1,0,0,0,0
1-((4-Methylphenyl)azo)-2-naphthalenol,483.25,1,Cc1ccc(N=Nc2c(O)ccc3ccccc23)cc1,0,0,0,0
"1,7-dichloronaphthalene",405.25,1,Clc1ccc2cccc(Cl)c2c1,0,0,0,0
"Disulfide, di-2-propenyl",315.55,1,C=CCSSCC=C,0,0,0,0
hexylamine,300,1,C(CCCCC)N,0,0,0,0
methyl 2-cyanoprop-2-enoate,352.15,1,COC(=O)C(=C)C#N,0,0,0,0
"Benzoyl chloride, 3-methyl-",349.15,1,Cc1cccc(C(=O)Cl)c1,0,0,0,0
"Benzeneacetic acid, 4-chloro-alpha-(4-chlorophenyl)- (9CI)",475.75,1,O=C(O)C(c1ccc(Cl)cc1)c1ccc(Cl)cc1,0,0,0,1
"Propane, 2,2-difluoro-1,1,1,3,3,3-hexachloro-",352.95,1,FC(F)(C(Cl)(Cl)Cl)C(Cl)(Cl)Cl,0,0,0,0
"4-chloro-3,5-dinitrobenzoic acid",482.55,1,O=C(O)c1cc([N+](=O)[O-])c(Cl)c([N+](=O)[O-])c1,0,0,0,1
1-chloro-3-nitrobenzene,400.15,1,C1=CC(=CC(=C1)Cl)[N+](=O)[O-],0,0,0,0
"1H-Indole, 5-nitro- (9CI)",446.25,1,O=[N+]([O-])c1ccc2[nH]ccc2c1,0,0,0,0
"1,3-dichlorobenzene",336,1,ClC1=CC(=CC=C1)Cl,0,0,0,0
"2,2-dichloroacetaldehyde",333.15,1,C(=O)C(Cl)Cl,0,0,0,0
prop-1-en-2-ylbenzene,327.15,1,CC(=C)C1=CC=CC=C1,0,0,0,0
"2-Propenoic acid, 2-methyl-, 2-ethoxyethyl ester",344.85,1,C=C(C)C(=O)OCCOCC,0,0,0,1
methyl 3-phenylpropanoate,372.85,1,COC(=O)CCc1ccccc1,0,0,0,0
"L-Cysteine, S-methyl- (9CI)",408.55,1,CSC[C@H](N)C(=O)O,0,0,0,0
"1,3,5-Triazine, hexahydro-1,3,5-trinitro-",678.75,1,O=[N+]([O-])N1CN([N+](=O)[O-])CN([N+](=O)[O-])C1,0,0,0,0
"1,1,2-Trichloroethylene",285.25,1,ClC=C(Cl)Cl,0,0,0,0
"Cyclotrisilazane, 2,2,4,4,6,6-hexamethyl-",332.15,1,C[Si]1(C)N[Si](C)(C)N[Si](C)(C)N1,1,1,0,0
1-ethyl-1-methylcyclohexane,302.35,1,CCC1(C)CCCCC1,0,0,0,0
"Acetic acid, phenoxy-, methyl ester",361.85,1,COC(=O)COc1ccccc1,0,0,0,1
"3,4-dimethylhexan-2-one",307.35,1,CCC(C)C(C)C(C)=O,0,0,0,0
1-methoxy-3-methylbenzene,327.15,1,COc1cccc(C)c1,0,0,0,0
"Toluene, 2,5-dichloro-alpha,alpha,alpha-trifluoro- (6CI,7CI,8CI)",343.85,1,FC(F)(F)c1cc(Cl)ccc1Cl,0,0,0,0
"2,5-dimethyl-1,3-benzoxazole",364.15,1,Cc1ccc2oc(C)nc2c1,0,0,0,0
1-piperidin-2-ylpropan-2-one,347.45,1,CC(=O)CC1CCCCN1,0,0,0,0
3-phenoxypropanoic acid,357.15,1,O=C(O)CCOc1ccccc1,0,0,0,1
cyclobutylamine,269,1,C1(CCC1)N,0,0,0,0
"6-ethoxy-2,2,4-trimethyl-1H-quinoline",380.15,1,CCOC1=CC2=C(C=C1)NC(C=C2C)(C)C,0,0,0,0
3-nonanol,352,1,CCC(CCCCCC)O,0,0,0,0
"Ethanol, 2-(cyclohexylamino)-",390.75,1,OCCNC1CCCCC1,0,0,0,0
"3,5,6-Trichloro-2(1H)-pyridinone",381.05,1,O=c1[nH]c(Cl)c(Cl)cc1Cl,0,0,0,0
"1-Propanol, 2,3-dibromo-, phosphate (3:1)",556.05,1,O=P(O)(O)O.OCC(Br)CBr.OCC(Br)CBr.OCC(Br)CBr,0,0,0,0
NIOBIUM(V) n-BUTOXIDE,363.15,1,CCCC[O-].CCCC[O-].CCCC[O-].CCCC[O-].CCCC[O-].[Nb+5],0,1,0,0
3-Pyridinecarboxaldehyde,357.15,1,O=Cc1cccnc1,0,0,0,0
"1-Propanol, 2-phenoxy-",377.55,1,CC(CO)Oc1ccccc1,0,0,0,0
"Benzoic acid, 2-((1-naphthalenylamino)carbonyl)- (9CI)",499.55,1,O=C(O)c1ccccc1C(=O)Nc1cccc2ccccc12,0,0,0,1
"Benzene, 1-ethenyl-4-nitro- (9CI)",358.45,1,C=Cc1ccc([N+](=O)[O-])cc1,0,0,0,0
"1,3-Benzenediamine, 4-methyl-",422.65,1,Cc1ccc(N)cc1N,0,0,0,0
"Urea, N-nitroso-N-2-propenyl- (9CI)",349.15,1,C=CCN(N=O)C(N)=O,0,0,0,0
"Benzaldehyde, 3,4-dimethoxy-",383.55,1,COc1ccc(C=O)cc1OC,0,0,0,0
(2S)-2-amino-3-phenylpropanoic acid,412.95,1,N[C@@H](Cc1ccccc1)C(=O)O,0,0,0,1
"1,1'-Biphenyl, 2-chloro- (9CI)",389.05,1,Clc1ccccc1-c1ccccc1,0,0,0,0
cyclodecene,332.25,1,C1=CCCCCCCCC1,0,0,0,0
"2,3-dichloropropan-1-ol",364.15,1,C(C(CCl)Cl)O,0,0,0,0
"7-Oxabicyclo(2.2.1)heptane, 1-methyl-4-(1-methylethyl)-",320.95,1,CC(C)C12CCC(C)(CC1)O2,0,0,0,0
"Ethanone, 1-(2-hydroxy-4-methoxyphenyl)- (9CI)",395.45,1,COc1ccc(C(C)=O)c(O)c1,0,0,0,0
"Acetic acid, ((diethoxyphosphinothioyl)oxy)-, ethyl ester (9CI)",395.85,1,CCOC(=O)COP(=S)(OCC)OCC,0,0,0,1
bromo(nitro)methane,308.55,1,O=[N+]([O-])CBr,0,0,0,0
"(1,1'-Biphenyl)-4-acetic acid",559.75,1,O=C(O)Cc1ccc(-c2ccccc2)cc1,0,0,0,1
"1,3,3-trimethyl-2-oxabicyclo[2.2.2]octane",322.15,1,CC1(C2CCC(O1)(CC2)C)C,0,0,0,0
"Benzoic acid, 4-chloro-",511.15,1,O=C(O)c1ccc(Cl)cc1,0,0,0,1
"Acrylic acid, 2-butoxyethyl ester (8CI)",468.15,1,C=CC(=O)OCCOCCCC,0,0,0,1
"Methane, sulfonylbis(trichloro-",398.85,1,O=S(=O)(C(Cl)(Cl)Cl)C(Cl)(Cl)Cl,0,0,0,0
"Butyric acid, 2-bromo-, ethyl ester (8CI)",342.65,1,CCOC(=O)C(Br)CC,0,0,0,1
"3-Biphenylcarboxaldehyde (6CI,7CI,8CI)",465.15,1,O=Cc1cccc(-c2ccccc2)c1,0,0,0,0
propan-2-yl 2-hydroxybenzoate,369.65,1,CC(C)OC(=O)c1ccccc1O,0,0,0,0
"1H-Benzotriazole, 5-methyl-",410.55,1,Cc1ccc2[nH]nnc2c1,0,0,0,0
2-[[3-(oxiran-2-ylmethoxy)phenoxy]methyl]oxirane,450.15,1,C1C(O1)COC2=CC(=CC=C2)OCC3CO3,0,0,0,0
"3-Heptanone, 6-(dimethylamino)-4,4-diphenyl-",399.602,1,CCC(=O)C(CC(C)N(C)C)(c1ccccc1)c1ccccc1,0,0,0,0
5-Nitrofuran-2-acrylaldehyde,414.85,1,O=CC=Cc1ccc([N+](=O)[O-])o1,0,0,0,0
"beta-Alanine, N-(2,4-dihydroxy-3,3-dimethyl-1-oxobutyl)-, (R)- (9CI)",560.45,1,CC(C)(CO)[C@@H](O)C(=O)NCCC(=O)O,0,0,0,0
"2,3,5,6-tetrafluoropyridine",303.75,1,Fc1cc(F)c(F)nc1F,0,0,0,0
furan-2-ylmethyl propanoate,354.85,1,CCC(=O)OCc1ccco1,0,0,0,0
"Phosphorothioic acid, O,O-diethyl O-(4-nitrophenyl) ester",446.65,1,CCOP(=S)(OCC)Oc1ccc([N+](=O)[O-])cc1,0,0,0,1
cyclohexanol,341.15,1,C1CCC(CC1)O,0,0,0,0
1-aminopropan-2-ol,350.15,1,CC(CN)O,0,0,0,0
"1,2-di(propan-2-yl)benzene",350.15,1,CC(C)C1=CC=CC=C1C(C)C,0,0,0,0
"1,3-dipropylurea",395.45,1,CCCNC(=O)NCCC,0,0,0,0
"2,3-dimethylpyridine",318.55,1,Cc1cccnc1C,0,0,0,0
1-ethyl-4-fluorobenzene,303,1,C(C)C1=CC=C(C=C1)F,0,0,0,0
2-bromobut-1-ene,284.75,1,C=C(Br)CC,0,0,0,0
2-propan-2-ylnaphthalene,395.15,1,CC(C)C1=CC2=CC=CC=C2C=C1,0,0,0,0
"alpha,alpha,alpha-Trifluoro-m-toluonitrile",345.35,1,N#Cc1cccc(C(F)(F)F)c1,0,0,0,0
"ethyl 2,4-dioxopentanoate",358.905,1,CCOC(=O)C(=O)CC(C)=O,0,0,0,0
"Phosphonothioic acid, ethyl-, O-(2-chloro-4-nitrophenyl) O-ethyl ester",457.95,1,CCOP(=S)(CC)Oc1ccc([N+](=O)[O-])cc1Cl,0,0,0,1
"Benzenemethanol, alpha-phenyl-",413.95,1,OC(c1ccccc1)c1ccccc1,0,0,0,0
2H-1-Benzopyran-2-one,435.15,1,O=c1ccc2ccccc2o1,0,0,0,0
"2-chloro-1,3,5-trimethylbenzene",349.95,1,Cc1cc(C)c(Cl)c(C)c1,0,0,0,0
"1-Piperidinepropanol, alpha-bicyclo(2.2.1)hept-5-en-2-yl-alpha-phenyl-",497.65,1,OC(CCN1CCCCC1)(c1ccccc1)C1CC2C=CC1C2,0,0,0,0
"Benzenamine, 4-(4-chlorophenoxy)-",438.45,1,Nc1ccc(Oc2ccc(Cl)cc2)cc1,0,0,0,0
"Benzene, 1,2,4-trichloro-3-methoxy-",373.55,1,COc1c(Cl)ccc(Cl)c1Cl,0,0,0,0
p-Cyanobenzyl alcohol,406.75,1,N#Cc1ccc(CO)cc1,0,0,0,0
"1-Triazene, 1-(1,1'-biphenyl)-4-yl-3,3-dimethyl- (9CI)",433.65,1,CN(C)N=Nc1ccc(-c2ccccc2)cc1,0,0,0,0
"1,7-dibromoheptane",405.95,1,BrCCCCCCCBr,0,0,0,0
"Sulfide, methylvinyloxyethyl-",319.05,1,CC=COCCSCCOC=CC,0,0,0,0
"4H-1,3-Thiazine-2-amine, N-(2,6-dimethylphenyl)-5,6-dihydro- (9CI)",429.05,1,Cc1cccc(C)c1NC1=NCCCS1,0,0,0,0
"Acetyl chloride, chloro-",307.15,1,O=C(Cl)CCl,0,0,0,0
"o-Xylene, 4-nitro- (8CI)",394.65,1,Cc1ccc([N+](=O)[O-])cc1C,0,0,0,0
"1,2-Oxathiane, 2,2-dioxide",408.35,1,O=S1(=O)CCCCO1,0,0,0,0
"1,2-Dihydro-3-methylbenz(j)aceanthrylen- 1-ol",479.95,1,Cc1ccc2cc3c(ccc4ccccc43)c3c2c1CC3O,0,0,0,0
"(3,4-dimethoxyphenyl)methanol",394.85,1,COc1ccc(CO)cc1OC,0,0,0,0
"5-methyl-3a,4,5,6,7,7a-hexahydro-2-benzofuran-1,3-dione",623.15,1,CC1CCC2C(C1)C(=O)OC2=O,0,0,0,0
"2-chloro-1,1-diethoxyethane",302.55,1,CCOC(CCl)OCC,0,0,0,0
"1,3-dichlorobutan-2-one",332.15,1,CC(Cl)C(=O)CCl,0,0,0,0