compound,flashpoint,pure substance,smiles,is_silicon,is_metallic,is_tin,is_acid
"Benzoic acid, 2-methyl-3-nitro-",425.05,1,Cc1c(C(=O)O)cccc1[N+](=O)[O-],0,0,0,1
"ethyl 2,2-dimethylpropanoate",289.15,1,CCOC(=O)C(C)(C)C,0,0,0,0
2-(2-chlorophenyl)acetonitrile,380.85,1,N#CCc1ccccc1Cl,0,0,0,0
"Hexanedioic acid, di-2-propynyl ester (9CI)",419.75,1,C#CCOC(=O)CCCCC(=O)OCC#C,0,0,0,1
"1H-Benzimidazol-2-amine, 5-methoxy-1-methyl-",452.35,1,COc1ccc2c(c1)nc(N)n2C,0,0,0,0
"Pyridine, 2-ethenyl-",319.85,1,C=Cc1ccccn1,0,0,0,0
"Benzoic acid, 2-((phenylmethylene)amino)- (9CI)",493.65,1,O=C(O)c1ccccc1N=Cc1ccccc1,0,0,0,1
"Phosphine oxide, triphenyl-",506.95,1,O=P(c1ccccc1)(c1ccccc1)c1ccccc1,0,0,0,0
"1,1,1,2,2,3,3,4,5,5,5-undecafluoro-4-(trifluoromethyl)pentane",275.25,1,FC(F)(F)C(F)(F)C(F)(F)C(F)(C(F)(F)F)C(F)(F)F,0,0,0,0
"1H-Imidazole, 2-heptadecyl-4,5-dihydro-",492.65,1,CCCCCCCCCCCCCCCCCC1=NCCN1,0,0,0,0
(2S)-2-[[4-[2-[4-[[(2S)-oxiran-2-yl]methoxy]phenyl]propan-2-yl]phenoxy]methyl]oxirane,352.15,1,CC(C)(C1=CC=C(C=C1)OCC2CO2)C3=CC=C(C=C3)OCC4CO4,0,0,0,0
"4,4-dimethylcyclohexene",275.85,1,CC1(C)CC=CCC1,0,0,0,0
N-(oxomethylidene)sulfamoyl chloride,291.65,1,O=C=NS(=O)(=O)Cl,0,0,0,0
"3-Cyclohexene-1-carboxaldehyde, 6-methyl-",326.35,1,CC1CC=CCC1C=O,0,0,0,0
thiophen-2-ylmethanol,349.85,1,OCc1cccs1,0,0,0,0
"Methanone, bis(4-(dimethylamino)phenyl)-",493.15,1,CN(C)c1ccc(C(=O)c2ccc(N(C)C)cc2)cc1,0,0,0,0
"2,6-dibromophenol",355.666,1,Oc1c(Br)cccc1Br,0,0,0,0
2-(dibutylamino)ethanol,372.15,1,CCCCN(CCCC)CCO,0,0,0,0
but-3-yn-2-one,272.15,1,C#CC(C)=O,0,0,0,0
"Propanoic acid, 2-phenylethyl ester",367.55,1,CCC(=O)OCCc1ccccc1,0,0,0,1
3-phenylpropan-1-amine,468.15,1,NCCCc1ccccc1,0,0,0,0
"Propanenitrile, 3-(ethyl(3-methylphenyl)amino)-",418.25,1,CCN(CCC#N)c1cccc(C)c1,0,0,0,0
"3,4-dimethyl-2,6-dinitro-N-pentan-3-ylaniline",306.15,1,CCC(CC)NC1=C(C=C(C(=C1[N+](=O)[O-])C)C)[N+](=O)[O-],0,0,0,0
"Phenol, 4,4'-(1,2-diethylidene-1,2-ethanediyl)bis-",454.55,1,CC=C(C(=CC)c1ccc(O)cc1)c1ccc(O)cc1,0,0,0,0
"Octanoic acid, 2,2,3,3,4,4,5,5,6,6,7,7,8,8,8-pentadecafluoro-",335.25,1,O=C(O)C(F)(F)C(F)(F)C(F)(F)C(F)(F)C(F)(F)C(F)(F)C(F)(F)F,0,0,0,1
1-phenylpropan-2-one,360.65,1,CC(=O)Cc1ccccc1,0,0,0,0
"2,4,6(1H,3H,5H)-Pyrimidinetrione, 5-ethyl-5-phenyl-",284.15,1,CCC1(c2ccccc2)C(=O)NC(=O)NC1=O,0,0,0,0
1-methyl-2-nitrobenzene,379.15,1,CC1=CC=CC=C1[N+](=O)[O-],0,0,0,0
"Benzenamine, 2,4-difluoro-",335.15,1,Nc1ccc(F)cc1F,0,0,0,0
4-methylpyridine,330.15,1,CC1=CC=NC=C1,0,0,0,0
"4-Pyrimidinol, 2-amino-5-methyl-6-phenyl-",455.35,1,Cc1c(O)nc(N)nc1-c1ccccc1,0,0,0,0
"Carbamic acid, methyl-, 2,3-dihydro-7-benzofuranyl ester",412.55,1,CNC(=O)Oc1cccc2c1OCC2,0,0,0,1
{4-[(benzoyloxy)methyl]cyclohexyl}methyl benzoate,434,1,O=C(OCC1CCC(CC1)COC(=O)c1ccccc1)c1ccccc1,0,0,0,0
"1,3-Dioxolane, 4-chloromethyl-2-(trichloromethyl)-",380.15,1,ClCC1COC(C(Cl)(Cl)Cl)O1,0,0,0,0
2-chloro-2-methylpropanal,298.65,1,CC(C)(Cl)C=O,0,0,0,0
octylacetate,355,1,C(CCCCCCC)OC(C)=O,0,0,0,0
"Phenol, p-(1-cyclohexen-1-yl)-",410.25,1,Oc1ccc(C2=CCCCC2)cc1,0,0,0,0
1-nitro-2-(trifluoromethyl)benzene,369.15,1,C1=CC=C(C(=C1)C(F)(F)F)[N+](=O)[O-],0,0,0,0
octyl octanoate,412.95,1,CCCCCCCCOC(=O)CCCCCCC,0,0,0,0
"Benzoic acid, 3-chloro-",397.05,1,O=C(O)c1cccc(Cl)c1,0,0,0,1
"Ethanone, 2-chloro-1-(2,4-dichlorophenyl)-",385.15,1,O=C(CCl)c1ccc(Cl)cc1Cl,0,0,0,0
1-[ethoxy(methyl)phosphoryl]oxyethane,348.75,1,CCOP(C)(=O)OCC,0,0,0,0
"4-bromo-1,2-dichlorobenzene",377.25,1,Clc1ccc(Br)cc1Cl,0,0,0,0
"Acetic acid, 2,2,2-tribromo-",370.15,1,O=C(O)C(Br)(Br)Br,0,0,0,1
1-chloro-2-ethenylbenzene,332.15,1,C=CC1=CC=CC=C1Cl,0,0,0,0
"Azoxybenzene, 4,4'-dimethoxy- (8CI)",479.75,1,COc1ccc(N=[N+]([O-])c2ccc(OC)cc2)cc1,0,0,0,0
4'-Chloro-3'-nitroacetophenone,401.15,1,CC(=O)c1ccc(Cl)c([N+](=O)[O-])c1,0,0,0,0
"1,2-dimethyl-4-isopropylbenzene",341.2,1,Cc1ccc(C(C)C)cc1C,0,0,0,0
"Propane, 1,2-epoxy-3-methoxy-",281.25,1,COCC1CO1,0,0,0,0
3-methylaniline,359,1,CC=1C=C(N)C=CC1,0,0,0,0
"7,12-Dihydroxymethylbenz(a)anthracene",556.65,1,OCc1c2ccccc2c(CO)c2c1ccc1ccccc12,0,0,0,0
4-methylbenzonitrile,358.15,1,CC1=CC=C(C=C1)C#N,0,0,0,0
"2-chloro-1,3-dimethylbenzene",336.45,1,Cc1cccc(C)c1Cl,0,0,0,0
"3,4-Dichloro-5-hydroxyfuran-2(5H)-one",373.15,1,O=C1OC(O)C(Cl)=C1Cl,0,0,0,0
1-bromo-2-phenylbenzene,406.85,1,Brc1ccccc1-c1ccccc1,0,0,0,0
2-methoxy-6-prop-1-enylphenol,397.95,1,CC=Cc1cccc(OC)c1O,0,0,0,0
pyridine-4-carbohydrazide,463.15,1,C1=CN=CC=C1C(=O)NN,0,0,0,0
"2,4-di(nonyl)phenol",400.15,1,CCCCCCCCCC1=CC(=C(C=C1)O)CCCCCCCCC,0,0,0,0
"3-Chloro-2,3-dimethylhexane",316.7,1,CCCC(C)(Cl)C(C)C,0,0,0,0
"Formamidine, N,N'-diphenyl- (6CI,7CI,8CI)",421.25,1,C(=Nc1ccccc1)Nc1ccccc1,0,0,0,0
"Urea, 1,1,3-trimethyl-3-nitroso-",316.85,1,CN(C)C(=O)N(C)N=O,0,0,0,0
2-ethyl-1-butanol,330,1,C(C)C(CO)CC,0,0,0,0
"Benzeneacetic acid, 3,4-dihydroxy- (9CI)",494.15,1,O=C(O)Cc1ccc(O)c(O)c1,0,0,0,1
"2-methyl-5-propan-2-ylcyclohexa-1,3-diene",322,1,CC1=CCC(C=C1)C(C)C,0,0,0,0
"2-O-benzyl 1-O-butyl benzene-1,2-dicarboxylate",472.15,1,CCCCOC(=O)C1=CC=CC=C1C(=O)OCC2=CC=CC=C2,0,0,0,0
"2-Butenoic acid, 3-((dimethoxyphosphinyl)oxy)-, phenylmethyl ester",458.55,1,COP(=O)(OC)OC(C)=CC(=O)OCc1ccccc1,0,0,0,1
"Benzoic acid, 5-(aminosulfonyl)-4-chloro-2-((2-furanylmethyl)amino)-",579.05,1,NS(=O)(=O)c1cc(C(=O)O)c(NCc2ccco2)cc1Cl,0,0,0,1
"Benzenamine, 2,6-dichloro-4-nitro-",422.25,1,Nc1c(Cl)cc([N+](=O)[O-])cc1Cl,0,0,0,0
1-bromo-3-methylbenzene,333.15,1,CC1=CC(=CC=C1)Br,0,0,0,0
"Carbamic acid, methyl-, o-(1,3-oxathiolan-2-yl)phenyl ester",449.25,1,CNC(=O)Oc1ccccc1C1OCCS1,0,0,0,1
"1-ethyl-2,4-dimethylbenzene",330,1,C(C)C1=C(C=C(C=C1)C)C,0,0,0,0
"2H-1,4-Benzodiazepin-2-one, 7-chloro-1,3-dihydro-5-phenyl-",500.95,1,O=C1CN=C(c2ccccc2)c2cc(Cl)ccc2N1,0,0,0,0
2-iodopentane,317.75,1,CCCC(C)I,0,0,0,0
4-butylaniline,375,1,C(CCC)C1=CC=C(N)C=C1,0,0,0,0
"Isobutyric acid, butyl ester (6CI,7CI,8CI)",319.85,1,CCCCOC(=O)C(C)C,0,0,0,1
naphthalene-2-carbonyl chloride,414.35,1,O=C(Cl)c1ccc2ccccc2c1,0,0,0,0
"1,4-Dihydroxynaphthalene",475.65,1,Oc1ccc(O)c2ccccc12,0,0,0,0
tridecylcyclopentane,418.35,1,CCCCCCCCCCCCCC1CCCC1,0,0,0,0
"Glycine, N-carbamoyl- (7CI,8CI)",424.65,1,NC(=O)NCC(=O)O,0,0,0,0
propyl heptanoate,349.85,1,CCCCCCC(=O)OCCC,0,0,0,0
"6-Quinoxalinamine, 2,3-dimethyl-",457.05,1,Cc1nc2ccc(N)cc2nc1C,0,0,0,0
PHENYLTHIOTRI-n-BUTYLTIN,377.15,1,CCCC[Sn](CCCC)(CCCC)Sc1ccccc1,0,1,1,0
2-methylbenzaldehyde,340.15,1,CC1=CC=CC=C1C=O,0,0,0,0
"Benzenamine, 4-methoxy-N-(4-methoxyphenyl)-",423.65,1,COc1ccc(Nc2ccc(OC)cc2)cc1,0,0,0,0
"3-Hexanone, 2-methyl-",297.05,1,CCCC(=O)C(C)C,0,0,0,0
"Silane, azidotrimethyl-",279.15,1,C[Si](C)(C)N=[N+]=[N-],1,1,0,0
2-nitrophenol,381.15,1,C1=CC=C(C(=C1)[N+](=O)[O-])O,0,0,0,0
"2,3-dimethylpent-1-ene",256,1,CCC(C)C(=C)C,0,0,0,0
1-[butoxy(butyl)phosphoryl]oxybutane,427.15,1,CCCCOP(=O)(CCCC)OCCCC,0,0,0,0
TITANIUM TETRAKIS(DIMETHYLAMIDE),281.15,1,C[N-]C.C[N-]C.C[N-]C.C[N-]C.[Ti+4],0,1,0,0
"2-Butenoic acid, 2-methyl-, 1-methylethyl ester, (E)- (9CI)",328.05,1,C/C=C(\C)C(=O)OC(C)C,0,0,0,1
"Naphtho(1,2,3,4-def)chrysene",555.15,1,c1ccc2c(c1)cc1c3ccccc3c3cccc4ccc2c1c43,0,0,0,0
dimethyl 2-methylbutanedioate,356.45,1,COC(=O)CC(C)C(=O)OC,0,0,0,0
diphenylmethanimine,397.45,1,N=C(c1ccccc1)c1ccccc1,0,0,0,0
ethyl piperazine-1-carboxylate,370.25,1,CCOC(=O)N1CCNCC1,0,0,0,0
"2,3-dichloroprop-1-ene",283.15,1,C=C(CCl)Cl,0,0,0,0
4-Morpholineacetonitrile,360.15,1,N#CCN1CCOCC1,0,0,0,0
dibutylamine,320,1,C(CCC)NCCCC,0,0,0,0
3-methylpentane,241,1,CC(CC)CC,0,0,0,0
"Phenol, p-butoxy- (8CI)",405.55,1,CCCCOc1ccc(O)cc1,0,0,0,0
3-fluorophenol,344.15,1,Oc1cccc(F)c1,0,0,0,0
"Phenol, 4-bromo-2,6-dichloro- (8CI)(9CI)",376.05,1,Oc1c(Cl)cc(Br)cc1Cl,0,0,0,0
4-Octylaniline,409.35,1,CCCCCCCCc1ccc(N)cc1,0,0,0,0
"2-Butene, 1,4-dibromo-, trans-",345.05,1,BrC/C=C/CBr,0,0,0,0
"Phosphonic acid, bis(2-ethylhexyl) ester",465.95,1,CCCCC(CC)CO[PH](=O)OCC(CC)CCCC,0,0,0,1
"benzene-1,4-diol",438.15,1,C1=CC(=CC=C1O)O,0,0,0,0
"furan-2,5-dione",376.15,1,C1=CC(=O)OC1=O,0,0,0,0
"Hydrazine, 1,2-diacetyl- (8CI)",456.45,1,CC(=O)NNC(C)=O,0,0,0,0
"o-Cresol, 4-bromo-6-chloro-",380.55,1,Cc1cc(Br)cc(Cl)c1O,0,0,0,0
1-chloro-3-(trifluoromethyl)benzene,320.15,1,C1=CC(=CC(=C1)Cl)C(F)(F)F,0,0,0,0
"Benzene, 1,3-bis(1-methylethenyl)-",364.25,1,C=C(C)c1cccc(C(=C)C)c1,0,0,0,0
"Benzene, 1,3-dimethoxy-",360.928,1,COc1cccc(OC)c1,0,0,0,0
"s-Triazine, 2,4-diamino-6-chloro- (8CI)",522.05,1,Nc1nc(N)nc(Cl)n1,0,0,0,0
"1,3-Cyclohexanebis(methylamine) (8CI)",379.15,1,NCC1CCCC(CN)C1,0,0,0,0
2-(2-methylphenyl)ethanol,381.45,1,Cc1ccccc1CCO,0,0,0,0
Isohexylamine,298.85,1,CC(C)CCCN,0,0,0,0
"9,10-Anthracenedione, 1,8-dihydroxy-3-methyl- (9CI)",537.05,1,Cc1cc(O)c2c(c1)C(=O)c1cccc(O)c1C2=O,0,0,0,0
"3,4-dihydro-2H-pyran-2-carbaldehyde",321.15,1,C1CC(OC=C1)C=O,0,0,0,0
"Ether, 2-butenyl propenyl",287.55,1,CC=CCOC=CC,0,0,0,0
1-propan-2-yl-4-prop-1-en-2-ylbenzene,353.65,1,C=C(C)c1ccc(C(C)C)cc1,0,0,0,0
"Methanamine, N-nitro- (9CI)",320.75,1,CN[N+](=O)[O-],0,0,0,0
diethylamine,250,1,C(C)NCC,0,0,0,0
TETRAVINYLTIN,313.15,1,C=C[Sn](C=C)(C=C)C=C,0,1,1,0
3-methyl-1-phenylpyrazole,381.15,1,Cc1ccn(-c2ccccc2)n1,0,0,0,0
Cyclohexanesulfonamide,408.25,1,NS(=O)(=O)C1CCCCC1,0,0,0,0
"1,2-dichlorobutane",300,1,ClCC(CC)Cl,0,0,0,0
allylacetate,284,1,C(C=C)CC(=O)[O-],0,0,0,0
"Morpholine, 2,6-dimethyl-",317.55,1,CC1CNCC(C)O1,0,0,0,0
"Benzene, 2,4-dichloro-1-(4-nitrophenoxy)-",445.05,1,O=[N+]([O-])c1ccc(Oc2ccc(Cl)cc2Cl)cc1,0,0,0,0
"1,1,2-trimethylcyclopentane",279.55,1,CC1CCCC1(C)C,0,0,0,0
"2(3H)-Furanone, dihydro-5-butyl-",365.05,1,CCCCC1CCC(=O)O1,0,0,0,0
2-phenylbenzoic acid,616.65,1,O=C(O)c1ccccc1-c1ccccc1,0,0,0,1
butylbenzoate,380,1,C(CCC)OC(C1=CC=CC=C1)=O,0,0,0,0
"Pyrimidine, 2-amino-4,6-dichloro- (8CI)",437.75,1,Nc1nc(Cl)cc(Cl)n1,0,0,0,0
"2-Pyrrolidinone, 1-(1-methylethyl)-",366.15,1,CC(C)N1CCCC1=O,0,0,0,0
1-ethynylcyclopentan-1-ol,322.05,1,C#CC1(O)CCCC1,0,0,0,0
"N,N-dimethyl-1-phenylmethanamine",330.15,1,CN(C)CC1=CC=CC=C1,0,0,0,0
2-Chlorohexane,298.2,1,CCCCC(C)Cl,0,0,0,0
neopentyl ethanoate,316,1,CC(=O)OCC(C)(C)C,0,0,0,0
"2,5-dihydrothiophene",296.65,1,C1=CCSC1,0,0,0,0
quinazoline,379.817,1,c1ccc2ncncc2c1,0,0,0,0
"4-[cyclopropyl(hydroxy)methylidene]-3,5-dioxocyclohexane-1-carboxylic",523.85,1,O=C1CC(C(=O)O)CC(=O)C1=C(O)C1CC1,0,0,0,0
"2,3-dimethylheptane",288,1,CC(C)C(CCCC)C,0,0,0,0
"1,2,2,6,6-pentamethylpiperidine",323.15,1,CN1C(C)(C)CCCC1(C)C,0,0,0,0
"9H-Fluorene-9-carboxylic acid, 2-chloro-9-hydroxy-, methyl ester",484.85,1,COC(=O)C1(O)c2ccccc2-c2ccc(Cl)cc21,0,0,0,1
Pyren-1-ylamine,519.35,1,Nc1ccc2ccc3cccc4ccc1c2c34,0,0,0,0
6-methylheptyl prop-2-enoate,364.15,1,CC(C)CCCCCOC(=O)C=C,0,0,0,0
"Benz(c)acridine, 7-methyl-",478.65,1,Cc1c2ccccc2nc2c1ccc1ccccc12,0,0,0,0
N-dimethylsulfinamoyl-N-methylmethanamine,353.35,1,CN(C)S(=O)N(C)C,0,0,0,0
"p-Toluidine, N-ethyl- (8CI)",357.25,1,CCNc1ccc(C)cc1,0,0,0,0
"1,2-dichloroethyl acetate",426.15,1,CC(=O)OC(CCl)Cl,0,0,0,0
N-vinyl-N-methylacetamide,336,1,C(=C)N(C(C)=O)C,0,0,0,0
"2-Naphthalenol, 1-nitroso-",443.25,1,O=Nc1c(O)ccc2ccccc12,0,0,0,0
2-propan-2-ylphenol,377.15,1,CC(C)C1=CC=CC=C1O,0,0,0,0
2-bromohexane,313.25,1,CCCCC(C)Br,0,0,0,0
"Acetamide, N-9H-fluoren-2-yl-2,2,2-trifluoro- (9CI)",475.15,1,O=C(Nc1ccc2c(c1)Cc1ccccc1-2)C(F)(F)F,0,0,0,0
2-carene,311,1,C12C=C(CCC1C2(C)C)C,0,0,0,0
"Pyridine, 2-ethyl-",302.55,1,CCc1ccccn1,0,0,0,0
"Benzene, 1,1'-(2,2,2-trichloroethylidene)bis(4-chloro-",477.05,1,Clc1ccc(C(c2ccc(Cl)cc2)C(Cl)(Cl)Cl)cc1,0,0,0,0
propan-2-yl 4-oxopentanoate,357.55,1,CC(=O)CCC(=O)OC(C)C,0,0,0,0
1-nonanol,371,1,C(CCCCCCCC)O,0,0,0,0
"Pyrrole, 2,5-dimethyl- (8CI)",327.15,1,Cc1ccc(C)[nH]1,0,0,0,0
"Tetrasulfide, bis(piperidinothiocarbonyl) (8CI)",535.45,1,S=C(SSSSC(=S)N1CCCCC1)N1CCCCC1,0,0,0,0
[(E)-3-chloroprop-2-enyl]benzene,562.05,1,Cl/C=C/Cc1ccccc1,0,0,0,0
"2,6-dimethylpyran-4-one",376.55,1,Cc1cc(=O)cc(C)o1,0,0,0,0
"Furo(2,3-b)quinoline, 4,7-dimethoxy-",457.35,1,COc1ccc2c(OC)c3ccoc3nc2c1,0,0,0,0
"1,3-Dioxane, 4-(4-methoxyphenyl)-5-methyl- (9CI)",375.95,1,COc1ccc(C2OCOCC2C)cc1,0,0,0,0
"Benzimidazole, 4,6-dibromo-2-(trifluoromethyl)-",452.75,1,FC(F)(F)c1nc2cc(Br)cc(Br)c2[nH]1,0,0,0,0
2-(chloromethyl)benzonitrile,379.35,1,N#Cc1ccccc1CCl,0,0,0,0
"2H-Pyran-2-carboxaldehyde, 3,4-dihydro-",346.55,1,O=CC1CCC=CO1,0,0,0,0
2-methoxy-4-[(E)-prop-1-enyl]phenol,386.15,1,CC=CC1=CC(=C(C=C1)O)OC,0,0,0,0
"Benzoic acid, 4-methyl-",397.85,1,Cc1ccc(C(=O)O)cc1,0,0,0,1
"Benzenemethanol, alpha-((2-pyridinylamino)methyl)- (9CI)",458.65,1,OC(CNc1ccccn1)c1ccccc1,0,0,0,0
"(2E,4E)-hexa-2,4-dienoate",400.15,1,CC=CC=CC(=O)[O-],0,0,0,0
"2,3,4,5-tetrabromothiophene",420.25,1,Brc1sc(Br)c(Br)c1Br,0,0,0,0
1-(4-phenylphenyl)ethanone,413.05,1,CC(=O)c1ccc(-c2ccccc2)cc1,0,0,0,0
"4-methyl-1,3-thiazole",305.15,1,Cc1cscn1,0,0,0,0
3-methylcyclohex-1-ene,270,1,CC1CCCC=C1,0,0,0,0
N-methylpropanamide,378.55,1,CCC(=O)NC,0,0,0,0
3-bromopropan-1-ol,367.15,1,C(CO)CBr,0,0,0,0
cis-4-methylcyclohexanol,343,1,C[C@@H]1CC[C@H](O)CC1,0,0,0,0
2-methylpropyl nitrate,314.05,1,CC(C)CO[N+](=O)[O-],0,0,0,0
"7-beta-D-ribofuranosyl-7H-pyrrolo-(2,3-d)pyrimidin-4-amine (9CI)",619.35,1,Nc1ncnc2c1ccn2[C@@H]1O[C@H](CO)[C@@H](O)[C@H]1O,0,0,0,0
N-butyl-N-phenylacetamide,414.15,1,CCCCN(C(C)=O)c1ccccc1,0,0,0,0
1-propanethiol,259,1,C(CC)S,0,0,0,0
6-Hydroxyquinoline,416.25,1,Oc1ccc2ncccc2c1,0,0,0,0
"2-Chloro-2,4-dimethylpentane",302.9,1,CC(C)CC(C)(C)Cl,0,0,0,0
"Ethanol, 2-chloro-, phosphite (3:1)",370.35,1,OCCCl.OCCCl.OCCCl.OP(O)O,0,0,0,0
"1,4-Benzenediamine, N,N-dimethyl-",361.75,1,CN(C)c1ccc(N)cc1,0,0,0,0
1-(2-hydroxypropoxy)propan-2-ol,411.15,1,CC(COCC(C)O)O,0,0,0,0
"9H-Carbazole, 9-ethenyl-",425.65,1,C=Cn1c2ccccc2c2ccccc21,0,0,0,0
pent-1-en-3-ylbenzene,333.75,1,C=CC(CC)c1ccccc1,0,0,0,0
"1,2,3,4,5-pentachloro-6-nitrobenzene",400.15,1,C1(=C(C(=C(C(=C1Cl)Cl)Cl)Cl)Cl)[N+](=O)[O-],0,0,0,0
butanoicanhydride,355,1,C(CCC)(=O)OC(CCC)=O,0,0,0,0
"2-phenyl-1,3-benzothiazole",447.55,1,c1ccc(-c2nc3ccccc3s2)cc1,0,0,0,0
"2,2-diethoxypropane",275.15,1,CCOC(C)(C)OCC,0,0,0,0
1-bromo-4-iodobenzene,375.05,1,Brc1ccc(I)cc1,0,0,0,0
"Bicyclo(2.2.1)heptan-2-amine, N-ethyl-3-phenyl-",426.05,1,CCNC1C2CCC(C2)C1c1ccccc1,0,0,0,0
"1-Heptanamine, 6-methyl-N,N-bis(6-methylheptyl)-",421.35,1,CC(C)CCCCCN(CCCCCC(C)C)CCCCCC(C)C,0,0,0,0
"Piperazine, 1-(1-methylethyl)- (9CI)",329.55,1,CC(C)N1CCNCC1,0,0,0,0
"Cyclopentene, 1,2,3,3,5,5-hexachloro-4-(dichloromethylene)-",437.15,1,ClC(Cl)=C1C(Cl)(Cl)C(Cl)=C(Cl)C1(Cl)Cl,0,0,0,0
4-methoxybenzaldehyde,389.15,1,COC1=CC=C(C=C1)C=O,0,0,0,0
oxiran-2-ylmethyl 2-methylprop-2-enoate,356.15,1,CC(=C)C(=O)OCC1CO1,0,0,0,0
"Acetic acid, (2,3,6-trichlorophenyl)-",440.75,1,O=C(O)Cc1c(Cl)ccc(Cl)c1Cl,0,0,0,1
"Ethanol, 2-sec-butoxy-",323.35,1,CCC(C)OCCO,0,0,0,0
DIMETHYLISOPROPOXYALUMINUM,278.15,1,CC(C)O[Al](C)C,0,1,0,0
tetradecylcyclohexane,437.85,1,CCCCCCCCCCCCCCC1CCCCC1,0,0,0,0
"2-Propenoic acid, 3-phenyl-, 2-phenylethyl ester",527.35,1,O=C(C=Cc1ccccc1)OCCc1ccccc1,0,0,0,1
"4,5-Isoxazoledione, 3-methyl-, 4-((o-chlorophenyl)hydrazone)",421.55,1,CC1=NOC(=O)C1=NNc1ccccc1Cl,0,0,0,0
"Acetonitrile, dibromo-",305.05,1,N#CC(Br)Br,0,0,0,0
4-(4-aminophenoxy)aniline,491.15,1,Nc1ccc(Oc2ccc(N)cc2)cc1,0,0,0,0
3-chloropropyl(trimethyl)silane,303.65,1,C[Si](C)(C)CCCCl,1,1,0,0
"Acetamide, N-(4'-fluoro(1,1'-biphenyl)-4-yl)- (9CI)",478.65,1,CC(=O)Nc1ccc(-c2ccc(F)cc2)cc1,0,0,0,0
"naphthalene-1,5-diol",525.15,1,C1=CC2=C(C=CC=C2O)C(=C1)O,0,0,0,0
"5-Heptenal, 2,6-dimethyl-",333.75,1,CC(C)=CCCC(C)C=O,0,0,0,0
2-ethylhexyl 2-methylprop-2-enoate,365.15,1,CCCCC(CC)COC(=O)C(=C)C,0,0,0,0
"Carbonic acid, ethyl octynyl ester",372.55,1,CCCCCCC#COC(=O)OCC,0,0,0,1
"Aniline, o-fluoro- (8CI)",333.15,1,Nc1ccccc1F,0,0,0,0
1-cyclohex-2-en-1-yl-4-cyclohex-3-en-1-ylbenzene,430.15,1,C1CC=CC(C1)C2=CC=C(C=C2)C3CCC=CC3,0,0,0,0
"Urea, 1,1,3-tributyl-2-thio- (8CI)",416.55,1,CCCCNC(=S)N(CCCC)CCCC,0,0,0,0
"pentane-1,5-diamine",335.15,1,C(CCN)CCN,0,0,0,0
"Butanamide, N-(2,4-dimethylphenyl)-3-oxo-",444.15,1,CC(=O)CC(=O)Nc1ccc(C)cc1C,0,0,0,0
"2,3,3-trimethylpentane",278,1,CC(C)C(CC)(C)C,0,0,0,0
"N-(2-chloroethyl)-2,6-dinitro-N-propyl-4-(trifluoromethyl)aniline",303.15,1,CCCN(CCCl)C1=C(C=C(C=C1[N+](=O)[O-])C(F)(F)F)[N+](=O)[O-],0,0,0,0
1-phenylbutan-2-one,363.75,1,CCC(=O)Cc1ccccc1,0,0,0,0
N-benzyl-4-methylaniline,425.95,1,Cc1ccc(NCc2ccccc2)cc1,0,0,0,0
"2-Chloro-2,4,4-trimethylpentane",311.5,1,CC(C)(C)CC(C)(C)Cl,0,0,0,0
"Silane, tris(1,1-dimethylethoxy)ethenyl- (9CI)",388.05,1,CC(C)(C)OC([SiH3])=C(OC(C)(C)C)OC(C)(C)C,1,1,0,0
"2-bromo-1,3-dimethylbenzene",347.05,1,Cc1cccc(C)c1Br,0,0,0,0
1-NONADECANOL,458,1,CCCCCCCCCCCCCCCCCCCO,0,0,0,0
(2Z)-hex-2-ene,247,1,CCC/C=C\C,0,0,0,0
"Cyclopentylamine, 1-methyl- (6CI)",282.35,1,CC1(N)CCCC1,0,0,0,0
1-phenylimidazole,393.85,1,c1ccc(-n2ccnc2)cc1,0,0,0,0
"1,4-Oxathiin-3-carboxamide, 5,6-dihydro-2-methyl-N-phenyl-",481.35,1,CC1=C(C(=O)Nc2ccccc2)SCCO1,0,0,0,0
"2-Heptanol, 3-methyl- (8CI)(9CI)",337.35,1,CCCCC(C)C(C)O,0,0,0,0
ethyl (E)-hex-2-enoate,335.45,1,CCC/C=C/C(=O)OCC,0,0,0,0
"Benzenamine, 4-methoxy-2-methyl-",386.65,1,COc1ccc(N)c(C)c1,0,0,0,0
"Ether, 2-fluoroethyl (1,2,2,2-tetrachloro)ethyl",363.65,1,FCCOC(Cl)C(Cl)(Cl)Cl,0,0,0,0
"N,N-diethyl-3-methylaniline",374.15,1,CCN(CC)c1cccc(C)c1,0,0,0,0
benzylalcohol,366,1,C(C1=CC=CC=C1)O,0,0,0,0
"(3,4,5-trihydroxybenzoyl)oxy 2-(2-ethylhexyl)-3,4,5-trihydroxybenzenecarboperoxoate",505.15,1,CCCCC(CC)CC1=C(C(=C(C=C1C(=O)OOOC(=O)C2=CC(=C(C(=C2)O)O)O)O)O)O,0,0,0,0
"2-methyl-1,4-dinitrobenzene",480.15,1,CC1=C(C=CC(=C1)[N+](=O)[O-])[N+](=O)[O-],0,0,0,0
"3,4-dimethylhex-1-ene",283.85,1,C=CC(C)C(C)CC,0,0,0,0
"Ethanone, 1-(4-nitrophenyl)- (9CI)",349.85,1,CC(=O)c1ccc([N+](=O)[O-])cc1,0,0,0,0
"1,1-dimethylcyclohexane",280,1,CC1(CCCCC1)C,0,0,0,0
"Thiazole, 2-amino-5-nitro-",435.65,1,Nc1ncc([N+](=O)[O-])s1,0,0,0,0
"1-Propanamine, 3-((2-ethylhexyl)oxy)-",375.95,1,CCCCC(CC)COCCCN,0,0,0,0
"1,1,1-trichloroethane",272,1,CC(Cl)(Cl)Cl,0,0,0,0
"Carbamothioic acid, diethyl-, S-ethyl ester (9CI)",357.35,1,CCSC(=O)N(CC)CC,0,0,0,1
"3-Bromo-2,2-dimethyl-1-propanol",348.75,1,CC(C)(CO)CBr,0,0,0,0
dibutyl hexanedioate,386.15,1,CCCCOC(=O)CCCCC(=O)OCCCC,0,0,0,0
"2,3-dimethyl-1H-indole",393.95,1,Cc1[nH]c2ccccc2c1C,0,0,0,0
1-fluoro-4-methoxybenzene,316.15,1,COc1ccc(F)cc1,0,0,0,0
"Benzene, 1,2,4,5-tetrachloro-3-nitro-",416.25,1,O=[N+]([O-])c1c(Cl)c(Cl)cc(Cl)c1Cl,0,0,0,0
"Benzonitrile, 2-nitro- (9CI)",410.75,1,N#Cc1ccccc1[N+](=O)[O-],0,0,0,0
"Phenol, 2,3-dichloro-",374.75,1,Oc1cccc(Cl)c1Cl,0,0,0,0
"1,2,4,5-Benzenetetracarboxylic 1,2:4,5-dianhydride (8CI)",456.65,1,O=c1oc(=O)c2cc3c(=O)oc(=O)c3cc12,0,0,0,0
"4,7,10,13,16,19-Docosahexaenoic acid",616.55,1,CCC=CCC=CCC=CCC=CCC=CCC=CCCC(=O)O,0,0,0,1
"2,2-dichloroethanol",351.15,1,C(C(Cl)Cl)O,0,0,0,0
"(1R,2R)-1-ethyl-2-methylcyclopentane",286.65,1,CC[C@@H]1CCC[C@H]1C,0,0,0,0
pentanamide,367.45,1,CCCCC(N)=O,0,0,0,0
bis(2-methoxyethyl)amine,331,1,COCCNCCOC,0,0,0,0
dichloro(phenyl)phosphane,375.15,1,C1=CC=C(C=C1)P(Cl)Cl,0,0,0,0
2-ethylsulfinyl-4-(3-prop-2-ynoxyphenyl)-6-(trifluoromethyl)pyrimidine,513.15,1,CCS(=O)C1=NC(=CC(=N1)C(F)(F)F)C2=CC(=CC=C2)OCC#C,0,0,0,0
"Ethanamine, 2-hydrazino-N,N-dimethyl-",339.05,1,CN(C)CCNN,0,0,0,0
3-methylthiophene,284,1,CC1=CSC=C1,0,0,0,0
4-phenylbutan-2-amine,370.95,1,CC(N)CCc1ccccc1,0,0,0,0
4-methyl-4-vinylbutyrolactone,348,1,CC1(CCC(=O)O1)C=C,0,0,0,0
"hepta-1,2-diene",275.35,1,C=C=CCCCC,0,0,0,0
"1,3-benzoxazole",338.45,1,c1ccc2ocnc2c1,0,0,0,0
allylethylether,253,1,C(C=C)OCC,0,0,0,0
"p-Toluenesulfonic acid, isobutyl ester",425.95,1,Cc1ccc(S(=O)(=O)OCC(C)C)cc1,0,0,0,1
"Phenol, 4-chloro-3-methyl-",366.55,1,Cc1cc(O)ccc1Cl,0,0,0,0
"Acetanilide, 4'-formyl- (8CI)",454.95,1,CC(=O)Nc1ccc(C=O)cc1,0,0,0,0
"trans-3,5-DIMETHOXYSTILBENE",489,1,COc1cc(/C=C/c2ccccc2)cc(OC)c1,0,0,0,0
"Benzamide, 2-ethoxy-",426.85,1,CCOc1ccccc1C(N)=O,0,0,0,0
"2,4,6-tribromoaniline",406.05,1,Nc1c(Br)cc(Br)cc1Br,0,0,0,0
"1H-Purine-2,6,8(3H)-trione, 7,9-dihydro-1,3-dimethyl-",541.55,1,Cn1c(=O)c2[nH]c(=O)[nH]c2n(C)c1=O,0,0,0,0
(4R)-4-methylhept-1-ene,288.65,1,C=CC[C@H](C)CCC,0,0,0,0
4-prop-1-en-2-ylcyclohexene-1-carbaldehyde,368.75,1,C=C(C)C1CC=C(C=O)CC1,0,0,0,0
"Urea, N,N-dimethyl-N'-(octahydro-4,7-methano-1H-inden-5-yl)-",466.35,1,CN(C)C(=O)NC1CC2CC1C1CCCC21,0,0,0,0
2-ethyl-3-methylthiophene,306.85,1,CCc1sccc1C,0,0,0,0