compound,flashpoint,pure substance,smiles,is_silicon,is_metallic,is_tin,is_acid
"Alanine, 3-(p-(bis(2-chloroethyl)amino)phenyl)-, L-",513.05,1,N[C@@H](Cc1ccc(N(CCCl)CCCl)cc1)C(=O)O,0,0,0,0
(E)-3-(furan-2-yl)prop-2-enenitrile,360.35,1,N#C/C=C/c1ccco1,0,0,0,0
"2H-Pyran-2-one, tetrahydro-6-pentyl-",379.25,1,CCCCCC1CCCC(=O)O1,0,0,0,0
benzoyl chloride,345.15,1,C1=CC=C(C=C1)C(=O)Cl,0,0,0,0
"1,1-dichloro-3-methylbutane",304.75,1,CC(C)CC(Cl)Cl,0,0,0,0
"1,4-dimethyl-2-isopropylbenzene",337.8,1,Cc1ccc(C)c(C(C)C)c1,0,0,0,0
"Benzene, 1,1'-ethylidenebis(4-methyl-",415.25,1,Cc1ccc(C(C)c2ccc(C)cc2)cc1,0,0,0,0
4-methyl-3-nitroaniline,430.15,1,CC1=C(C=C(C=C1)N)[N+](=O)[O-],0,0,0,0
"2-Naphthalenol, 1-(2-(2,4-dinitrophenyl)diazenyl)-",588.55,1,O=[N+]([O-])c1ccc(N=Nc2c(O)ccc3ccccc23)c([N+](=O)[O-])c1,0,0,0,0
"Acetonitrile, bromo-",297.45,1,N#CCBr,0,0,0,0
"Pyridine, 4-amino-",429.15,1,Nc1ccncc1,0,0,0,0
"Methanone, phenyl-4-pyridinyl-",423.15,1,O=C(c1ccccc1)c1ccncc1,0,0,0,0
"2-Benzothiazolesulfenamide, N,N-bis(1-methylethyl)-",437.65,1,CC(C)N(Sc1nc2ccccc2s1)C(C)C,0,0,0,0
"5H-Dibenzo(a,d)cyclohepten-5-one, 10,11-dihydro-",431.45,1,O=C1c2ccccc2CCc2ccccc21,0,0,0,0
"Benzimidazole, 4-chloro-2-(trifluoromethyl)-",409.05,1,FC(F)(F)c1nc2cccc(Cl)c2[nH]1,0,0,0,0
"2,4,6-trichloro-3-methylphenol",388.35,1,Cc1c(Cl)cc(Cl)c(O)c1Cl,0,0,0,0
(4-methoxyphenyl)methanamine,371.95,1,COc1ccc(CN)cc1,0,0,0,0
cyclopentylmethylether,272,1,C1(CCCC1)OC,0,0,0,0
"Propane, 1-(4-biphenyloxy)-2,3-epoxy- (7CI,8CI)",430.75,1,c1ccc(-c2ccc(OCC3CO3)cc2)cc1,0,0,0,0
trans-4-octene,281,1,CCC\C=C\CCC,0,0,0,0
"Ethanol, 2-(propylamino)-",351.45,1,CCCNCCO,0,0,0,0
"1,4-Diazabicyclo(2.2.2)octane",335.35,1,C1CN2CCN1CC2,0,0,0,0
"1-bromo-1,1,2,2,3,3,4,4,5,5,6,6,7,7,7-pentadecafluoroheptane",300.65,1,FC(F)(F)C(F)(F)C(F)(F)C(F)(F)C(F)(F)C(F)(F)C(F)(F)Br,0,0,0,0
"Propane, 1,2,2-trichloro-",317.25,1,CC(Cl)(Cl)CCl,0,0,0,0
"Oxirane, hexyl- (9CI)",310.35,1,CCCCCCC1CO1,0,0,0,0
ACETOXYETHYLTRIETHOXYSILANE,372.15,1,CCO[Si](CCOC(C)=O)(OCC)OCC,1,1,0,0
2-methoxyfuran,283.15,1,COc1ccco1,0,0,0,0
N-benzyl-2-methylaniline,429.45,1,Cc1ccccc1NCc1ccccc1,0,0,0,0
GLYOXAL,262,1,O=CC=O,0,0,0,0
"4,7-Methano-1H-inden-6-ol, 3a,4,5,6,7,7a-hexahydro-",363.35,1,OC1CC2CC1C1CC=CC21,0,0,0,0
DI-n-PROPYL PHTHALATE,433,1,CCCOC(=O)c1ccccc1C(=O)OCCC,0,0,0,0
1-prop-2-enylnaphthalene,392.65,1,C=CCc1cccc2ccccc12,0,0,0,0
"Benzenamine, N-ethyl-3-methyl-",362.15,1,CCNc1cccc(C)c1,0,0,0,0
"Propane, 1,1,1,3-tetrachloro-",324.55,1,ClCCC(Cl)(Cl)Cl,0,0,0,0
"4-bromo-N,N-dimethylaniline",377.85,1,CN(C)c1ccc(Br)cc1,0,0,0,0
2-methylquinoline,352.15,1,CC1=NC2=CC=CC=C2C=C1,0,0,0,0
"Anthraquinone, 1,4,5,8-tetraamino- (8CI)",657.45,1,Nc1ccc(N)c2c1C(=O)c1c(N)ccc(N)c1C2=O,0,0,0,0
2-(2-hydroxyphenyl)acetic acid,435.75,1,O=C(O)Cc1ccccc1O,0,0,0,1
isobutylmethylether,244,1,C(C(C)C)OC,0,0,0,0
2-ethylaniline,358.15,1,CCC1=CC=CC=C1N,0,0,0,0
"Carbamic acid, (3-chlorophenyl)-, 1-methyl-2-propynyl ester (9CI)",390.25,1,C#CC(C)OC(=O)Nc1cccc(Cl)c1,0,0,0,1
"2-Propenoic acid, 2-methyl-, 2-(dimethylamino)ethyl ester",343.75,1,C=C(C)C(=O)OCCN(C)C,0,0,0,1
"Ethene, 1,1'-(oxybis(2,1-ethanediyloxy))bis-",335.35,1,C=COCCOCCOC=C,0,0,0,0
"N,N-diisopropylformamide",348,1,C(C)(C)N(C=O)C(C)C,0,0,0,0
"2,4-Oxazolidinedione, 3,5,5-trimethyl-",321.15,1,CN1C(=O)OC(C)(C)C1=O,0,0,0,0
"Benzoic acid, 2-hydroxy-3-methyl-",418.55,1,Cc1cccc(C(=O)O)c1O,0,0,0,1
trans-2-octene,287,1,C\C=C\CCCCC,0,0,0,0
"Cyclohexanemethanol, alpha,alpha,4-trimethyl-",362.85,1,CC1CCC(C(C)(C)O)CC1,0,0,0,0
hexadec-1-ene,405,1,CCCCCCCCCCCCCCC=C,0,0,0,0
propyl prop-2-enoate,311,1,CCCOC(=O)C=C,0,0,0,0
"Benzimidazole, 5-chloro-2-(trifluoromethyl)-",409.05,1,FC(F)(F)c1nc2ccc(Cl)cc2[nH]1,0,0,0,0
"Benzenamine, 3,5-dimethyl-",366.45,1,Cc1cc(C)cc(N)c1,0,0,0,0
4-nitro-N-(4-nitrophenyl)aniline,507.55,1,O=[N+]([O-])c1ccc(Nc2ccc([N+](=O)[O-])cc2)cc1,0,0,0,0
"1,4-Benzenediol, 2-bromo-",395.25,1,Oc1ccc(O)c(Br)c1,0,0,0,0
"Propanoic acid, 2,2-dimethyl-, 2-oxo-2-phenylethyl ester (9CI)",404.65,1,CC(C)(C)C(=O)OCC(=O)c1ccccc1,0,0,0,1
"1,2-Benzenediol, 4,4'-(2,3-dimethyl-1,4-butanediyl)bis-",520.95,1,CC(Cc1ccc(O)c(O)c1)C(C)Cc1ccc(O)c(O)c1,0,0,0,0
1-Tridecanamine,383.75,1,CCCCCCCCCCCCCN,0,0,0,0
chloro(diethoxy)phosphane,274.25,1,CCOP(Cl)OCC,0,0,0,0
"Hexanoic acid, 6-amino-",381.55,1,NCCCCCC(=O)O,0,0,0,1
1-methyl-4-propan-2-ylbenzene,320.15,1,CC1=CC=C(C=C1)C(C)C,0,0,0,0
Phenyldichlorosilane,333,1,C1(=CC=CC=C1)[SiH](Cl)Cl,1,1,0,0
"2,3-Butanedione, monooxime",458.65,1,CC(=O)C(C)=NO,0,0,0,0
ethyl pyridine-2-carboxylate,380.35,1,CCOC(=O)c1ccccn1,0,0,0,0
"Benzene, 1,1'-ethylidenebis(4-chloro-",416.75,1,CC(c1ccc(Cl)cc1)c1ccc(Cl)cc1,0,0,0,0
"Benzaldehyde, 4-(1-methylethyl)-",366.45,1,CC(C)c1ccc(C=O)cc1,0,0,0,0
"Benzoyl chloride, 4-nitro-",394.95,1,O=C(Cl)c1ccc([N+](=O)[O-])cc1,0,0,0,0
undecan-3-one,346.35,1,CCCCCCCCC(=O)CC,0,0,0,0
Methyl hydroperoxide,274.25,1,COO,0,0,0,0
(E)-N-[(4-hydroxy-3-methoxyphenyl)methyl]-8-methylnon-6-enamide,386.15,1,CC(C)C=CCCCCC(=O)NCC1=CC(=C(C=C1)O)OC,0,0,0,0
"2,5-Cyclohexadiene-1,4-dione, 2,3,5,6-tetrachloro-",384.85,1,O=C1C(Cl)=C(Cl)C(=O)C(Cl)=C1Cl,0,0,0,0
"Benzenemethanol, 4-(1,1-dimethylethyl)-",377.95,1,CC(C)(C)c1ccc(CO)cc1,0,0,0,0
"Butanoic acid, 3-oxo-, butyl ester",352.75,1,CCCCOC(=O)CC(C)=O,0,0,0,1
4-methoxyaniline,278.15,1,COC1=CC=C(C=C1)N,0,0,0,0
2-butoxyethylacetate,344,1,C(CCC)OCCOC(C)=O,0,0,0,0
"1,3-Propanediol, 2-methyl-2-propyl-, dicarbamate",502.85,1,CCCC(C)(COC(N)=O)COC(N)=O,0,0,0,0
"Benzaldehyde, 2,4-dihydroxy-",439.05,1,O=Cc1ccc(O)cc1O,0,0,0,0
"2-Propanol, 1-butoxy-3-phenoxy-",436.25,1,CCCCOCC(O)COc1ccccc1,0,0,0,0
"Phenol, 2-fluoro-",319.85,1,Oc1ccccc1F,0,0,0,0
"Benzenamine, 4-methoxy-",377.65,1,COc1ccc(N)cc1,0,0,0,0
iodoethene,279.35,1,C=CI,0,0,0,0
[4-(hydroxymethyl)cyclohexyl]methanol,439.15,1,C1CC(CCC1CO)CO,0,0,0,0
"1H-Pyrrole, 3-chloro-4-(3-chloro-2-nitrophenyl)-",475.25,1,O=[N+]([O-])c1c(Cl)cccc1-c1c[nH]cc1Cl,0,0,0,0
aniline,343.15,1,C1=CC=C(C=C1)N,0,0,0,0
"Benzene, 1,2,4-trichloro-5-((3-iodo-2-propynyl)oxy)-",463.95,1,Clc1cc(Cl)c(OCC#CI)cc1Cl,0,0,0,0
"1-Butanol, 3-methoxy-",319.85,1,COC(C)CCO,0,0,0,0
"Benzoic acid, 3,5-dinitro-",452.35,1,O=C(O)c1cc([N+](=O)[O-])cc([N+](=O)[O-])c1,0,0,0,1
Pyrazine,328.15,1,c1cnccn1,0,0,0,0
"1-Pentanol, 2-amino-",368.15,1,CCCC(N)CO,0,0,0,0
"Hydrazinecarbothioamide, 2-(1-methylethylidene)-",356.25,1,CC(C)=NNC(N)=S,0,0,0,0
2-(2-prop-2-enoyloxyethoxy)ethyl prop-2-enoate,351.15,1,C=CC(=O)OCCOCCOC(=O)C=C,0,0,0,0
"1,1'-Biphenyl, 3-nitro- (9CI)",434.55,1,O=[N+]([O-])c1cccc(-c2ccccc2)c1,0,0,0,0
4-tert-butylaniline,375,1,C(C)(C)(C)C1=CC=C(N)C=C1,0,0,0,0
"Butanal, 3-methoxy- (9CI)",299.35,1,COC(C)CC=O,0,0,0,0
2-methyl-2-heptene,282,1,CC(C)=CCCCC,0,0,0,0
2-methoxyethyl prop-2-enoate,355.15,1,COCCOC(=O)C=C,0,0,0,0
"Benzenamine, 2,3,4,5,6-pentafluoro-",346.15,1,Nc1c(F)c(F)c(F)c(F)c1F,0,0,0,0
"1-Octen-3-ol, acetate",347.05,1,C=CC(CCCCC)OC(C)=O,0,0,0,0
"Pyrazine, 2-methyl-",323.15,1,Cc1cnccn1,0,0,0,0
TETRAPHENYLMETHANE,525,1,c1ccc(C(c2ccccc2)(c2ccccc2)c2ccccc2)cc1,0,0,0,0
nitrocyclopentane,340,1,[N+](=O)([O-])C1CCCC1,0,0,0,0
"2,6-dimethoxypyridine",334.15,1,COc1cccc(OC)n1,0,0,0,0
"3,4-dichloroaniline",439.15,1,C1=CC(=C(C=C1N)Cl)Cl,0,0,0,0
"Phenol, 2,6-bis(1-methylethyl)-",380.65,1,CC(C)c1cccc(C(C)C)c1O,0,0,0,0
"2,5-dichloroaniline",386.15,1,C1=CC(=C(C=C1Cl)N)Cl,0,0,0,0
5-n-Butylnonane,338.05,1,CCCCC(CCCC)CCCC,0,0,0,0
prop-2-enamide,411.15,1,C=CC(=O)N,0,0,0,0
"Ethanone, 1-(2-furanyl)-",344.25,1,CC(=O)c1ccco1,0,0,0,0
"1H-Isoindole-1,3(2H)-dione, 2-((trichloromethyl)thio)-",428.85,1,O=C1c2ccccc2C(=O)N1SC(Cl)(Cl)Cl,0,0,0,0
"1-Butanol, 3-methoxy-, acetate",329.05,1,COC(C)CCOC(C)=O,0,0,0,0
"Benzene, 1,1'-thiobis-",401.55,1,c1ccc(Sc2ccccc2)cc1,0,0,0,0
"Pentanoic acid, 2,2,3,3,4,4,5,5-octafluoro-",323.05,1,O=C(O)C(F)(F)C(F)(F)C(F)(F)C(F)F,0,0,0,1
"2,2,4-trimethylpentane",266,1,CC(C)(CC(C)C)C,0,0,0,0
"1H-Pyrrole-2,5-dione, 3,4-dichloro-",367.75,1,O=C1NC(=O)C(Cl)=C1Cl,0,0,0,0
3-methylheptan-2-one,317.75,1,CCCCC(C)C(C)=O,0,0,0,0
"4-N,4-N-dimethylbenzene-1,4-diamine",364.15,1,CN(C)C1=CC=C(C=C1)N,0,0,0,0
(2E)-3-heptene,267,1,CCC/C=C/CC,0,0,0,0
"1-chloro-2,4-dinitrobenzene",467.15,1,C1=CC(=C(C=C1[N+](=O)[O-])[N+](=O)[O-])Cl,0,0,0,0
4-propenylanisole,369,1,C(=CC)C1=CC=C(C=C1)OC,0,0,0,0
"2,2,2-trifluoro-1-phenylethanone",314.85,1,O=C(c1ccccc1)C(F)(F)F,0,0,0,0
1-(3-methoxypropoxy)propan-1-ol,347.15,1,CCC(O)OCCCOC,0,0,0,0
"Benzene, (2-(1-ethoxyethoxy)ethyl)-",350.85,1,CCOC(C)OCCc1ccccc1,0,0,0,0
"(1R,3R)-1,2,3-trimethylcyclohexane",301.05,1,CC1[C@H](C)CCC[C@H]1C,0,0,0,0
"Carbamic acid, (3-chlorophenyl)-, 4-chloro-2-butynyl ester (9CI)",433.05,1,O=C(Nc1cccc(Cl)c1)OCC#CCCl,0,0,0,1
"2-Pyridinamine, 4-methyl-",387.15,1,Cc1ccnc(N)c1,0,0,0,0
"1-Propanone, 2-hydroxy-2-methyl-1-phenyl-",381.35,1,CC(C)(O)C(=O)c1ccccc1,0,0,0,0
azepan-2-one,398.15,1,C1CCC(=O)NCC1,0,0,0,0
"2,6-Octadien-1-ol, 3,7-dimethyl-, (2E)-",349.817,1,CC(C)=CCC/C(C)=C/CO,0,0,0,0
Benzenehexanol,394.95,1,OCCCCCCc1ccccc1,0,0,0,0
"2,3-Hexanedione, 5-methyl-",306.15,1,CC(=O)C(=O)CC(C)C,0,0,0,0
2-bromopropanoic acid,349.45,1,CC(Br)C(=O)O,0,0,0,1
methylbenzoate,353,1,COC(C1=CC=CC=C1)=O,0,0,0,0
benzoyl fluoride,327.45,1,O=C(F)c1ccccc1,0,0,0,0
1-bromo-3-methyl-5-nitrobenzene,393.15,1,Cc1cc(Br)cc([N+](=O)[O-])c1,0,0,0,0
"1,4-Benzenediamine, N,N'-diphenyl-",570.15,1,c1ccc(Nc2ccc(Nc3ccccc3)cc2)cc1,0,0,0,0
"Pyridine, 2-ethenyl-5-ethyl- (9CI)",349.35,1,C=Cc1ccc(CC)cn1,0,0,0,0
"Acetic acid, bromo-, phenylmethyl ester",389.65,1,O=C(CBr)OCc1ccccc1,0,0,0,1
"Xanthen-9-one, 1,3,7-trimethoxy-",477.55,1,COc1cc(OC)c2c(=O)c3cc(OC)ccc3oc2c1,0,0,0,0
N-[2-di(propan-2-yloxy)phosphinothioylsulfanylethyl]benzenesulfonamide,588.15,1,CC(C)OP(=S)(OC(C)C)SCCNS(=O)(=O)C1=CC=CC=C1,0,0,0,0
allylpropylsulfide,302,1,C(C=C)SCCC,0,0,0,0
2-methyl-1H-indole,385.65,1,Cc1cc2ccccc2[nH]1,0,0,0,0
"2-Butenoic acid, 3-methyl-, 2-(1-methylpropyl)-4,6-dinitrophenyl ester",444.85,1,CCC(C)c1cc([N+](=O)[O-])cc([N+](=O)[O-])c1OC(=O)C=C(C)C,0,0,0,1
"Benzenamine, N,N-diethyl-4-((4-nitrophenyl)azo)-",510.95,1,CCN(CC)c1ccc(N=Nc2ccc([N+](=O)[O-])cc2)cc1,0,0,0,0
"2-Naphthalenol, 1,1'-methylenebis- (9CI)",531.75,1,Oc1ccc2ccccc2c1Cc1c(O)ccc2ccccc12,0,0,0,0
"1-Propene, 1,1,2,3-tetrachloro-",335.45,1,ClCC(Cl)=C(Cl)Cl,0,0,0,0
1-benzofuran,329.15,1,C1=CC=C2C(=C1)C=CO2,0,0,0,0
"Benzene, 1,2,3,4,5-pentabromo-6-methyl-",459.65,1,Cc1c(Br)c(Br)c(Br)c(Br)c1Br,0,0,0,0
1-ethoxy-3-fluorobenzene,324.45,1,CCOc1cccc(F)c1,0,0,0,0
"Benzoic acid, 3,4-dinitro-",481.55,1,O=C(O)c1ccc([N+](=O)[O-])c([N+](=O)[O-])c1,0,0,0,1
ISOBUTYL-tert-BUTYL ETHER,276,1,CC(C)COC(C)(C)C,0,0,0,0
4-nonanone,335,1,CCCC(CCCCC)=O,0,0,0,0
"Phosphoric acid, 1,2-dibromo-2,2-dichloroethyl dimethyl ester",392.55,1,COP(=O)(OC)OC(Br)C(Cl)(Cl)Br,0,0,0,1
"1,1,2,2-tetrafluoro-1,2-diiodoethane",309.15,1,FC(F)(I)C(F)(F)I,0,0,0,0
"4-bromo-1,2-dimethylbenzene",358.95,1,Cc1ccc(Br)cc1C,0,0,0,0
2-methylpropyl octadecanoate,460.85,1,CCCCCCCCCCCCCCCCCC(=O)OCC(C)C,0,0,0,0
"Piperazine, 1,4-dinitroso-",472.55,1,O=NN1CCN(N=O)CC1,0,0,0,0
2-butanoyloxyethyl butanoate,389.85,1,CCCC(=O)OCCOC(=O)CCC,0,0,0,0
"Benzenemethanol, 2-iodo-",401.35,1,OCc1ccccc1I,0,0,0,0
5-methylheptan-3-one,316.15,1,CCC(C)CC(=O)CC,0,0,0,0
"Cyclohexanone, 3-methyl-",321.15,1,CC1CCCC(=O)C1,0,0,0,0
"2,6-dichloro-4-methylphenol",376.05,1,Cc1cc(Cl)c(O)c(Cl)c1,0,0,0,0
DICHLOROACETIC acid,383.1,1,O=C(O)C(Cl)Cl,0,0,0,1
"9H-Indeno(2,1-c)phenanthrene",516.05,1,c1ccc2c(c1)Cc1ccc3ccc4ccccc4c3c1-2,0,0,0,0
"cis-1,2-dimethylcyclopentane",269,1,C[C@H]1[C@H](CCC1)C,0,0,0,0
methyl (2S)-5-(diaminomethylideneamino)-2-[(4-methylphenyl)sulfonylamino]pentanoate,262.15,1,CC1=CC=C(C=C1)S(=O)(=O)NC(CCCN=C(N)N)C(=O)OC,0,0,0,0
"Acetic acid, dichloro-, anhydride",363.75,1,O=C(OC(=O)C(Cl)Cl)C(Cl)Cl,0,0,0,1
butylcyclopentane,305,1,C(CCC)C1CCCC1,0,0,0,0
"Decanoic acid, 9-oxo-",444.95,1,CC(=O)CCCCCCCC(=O)O,0,0,0,1
butan-2-ylbenzene,325.15,1,CCC(C)C1=CC=CC=C1,0,0,0,0
2-ethoxyacetyl chloride,480.55,1,CCOCC(=O)Cl,0,0,0,0
"Phenol, 3,5-bis(1,1-dimethylethyl)-, methylcarbamate (9CI)",416.55,1,CNC(=O)Oc1cc(C(C)(C)C)cc(C(C)(C)C)c1,0,0,0,0
"2H-1,4-Benzodiazepin-2-one, 5-(2-chlorophenyl)-1,3-dihydro-7-nitro-",544.15,1,O=C1CN=C(c2ccccc2Cl)c2cc([N+](=O)[O-])ccc2N1,0,0,0,0
cyclobutyl(phenyl)methanone,375.65,1,O=C(c1ccccc1)C1CCC1,0,0,0,0
ANTIMONY(III) n-BUTOXIDE,341.15,1,CCCC[O-].CCCC[O-].CCCC[O-].[Sb+3],0,1,0,0
"Octanoic acid, propyl ester",361.05,1,CCCCCCCC(=O)OCCC,0,0,0,1
Benz(j)aceanthrylene,520.25,1,C1=Cc2c3ccc4ccccc4c3cc3cccc1c23,0,0,0,0
3-methylanisole,325,1,CC=1C=C(C=CC1)OC,0,0,0,0
"Benzyl alcohol, p-methyl-, acetate (6CI,7CI,8CI)",371.15,1,CC(=O)OCc1ccc(C)cc1,0,0,0,0
"1-Propene, 1,1-dichloro- (9CI)",273.75,1,CC=C(Cl)Cl,0,0,0,0
3-chloro-N-phenylaniline,420.55,1,Clc1cccc(Nc2ccccc2)c1,0,0,0,0
2-methylphenol,354.15,1,CC1=CC=CC=C1O,0,0,0,0
"Benzene, 1-fluoro-4-nitro-",356.45,1,O=[N+]([O-])c1ccc(F)cc1,0,0,0,0
isocyanatobenzene,329.15,1,C1=CC=C(C=C1)N=C=O,0,0,0,0
"7H-Furo(3,2-g)(1)benzopyran-7-one, 2,5,9-trimethyl-",462.25,1,Cc1cc2cc3c(C)cc(=O)oc3c(C)c2o1,0,0,0,0
2-isobutoxyethanol,324,1,C(C(C)C)OCCO,0,0,0,0
Tris(trimethylsiloxy)boron,315,1,C[Si](OB(O[Si](C)(C)C)O[Si](C)(C)C)(C)C,1,1,0,0
"Phenol, 2-chloro-5-methyl-",354.15,1,Cc1ccc(Cl)c(O)c1,0,0,0,0
"1,1-diethoxybut-2-ene",312.05,1,CC=CC(OCC)OCC,0,0,0,0
"Myristic acid, butyl ester (8CI)",431.65,1,CCCCCCCCCCCCCC(=O)OCCCC,0,0,0,1
"1,2,3,4,5-pentafluoro-6-(2,3,4,5,6-pentafluorophenyl)benzene",341.65,1,Fc1c(F)c(F)c(-c2c(F)c(F)c(F)c(F)c2F)c(F)c1F,0,0,0,0
"Benzenemethanol, alpha-methyl-, acetate",443.35,1,CC(=O)OC(C)c1ccccc1,0,0,0,0
"2,4,6-tritert-butylphenol",403.15,1,CC(C)(C)C1=CC(=C(C(=C1)C(C)(C)C)O)C(C)(C)C,0,0,0,0
cyclohexeneoxide,297,1,C12C(CCCC1)O2,0,0,0,0
"5,6,7,8-tetrahydronaphthalen-1-ol",395.75,1,Oc1cccc2c1CCCC2,0,0,0,0
"Benzoic acid, 3,4-dihydroxy- (9CI)",489.45,1,O=C(O)c1ccc(O)c(O)c1,0,0,0,1
"(2S)-2,6-diamino-N-[(2S)-1-phenylpropan-2-yl]hexanamide",260.15,1,CC(CC1=CC=CC=C1)NC(=O)C(CCCCN)N,0,0,0,0
"2,5-DINITROTOLUENE",438,1,Cc1cc([N+](=O)[O-])ccc1[N+](=O)[O-],0,0,0,0
"1H-Pyrrole-2,5-dione, 1-ethyl-",346.15,1,CCN1C(=O)C=CC1=O,0,0,0,0
2-hydroxypropanoate,386.15,1,CC(C(=O)[O-])O,0,0,0,0
"2,6-Octadien-1-ol, 3,7-dimethyl-, acetate, (2Z)-",372.05,1,CC(=O)OC/C=C(/C)CCC=C(C)C,0,0,0,0
"Naphthalene, 1,2,3,4,5,6,7,8-octachloro-",487.35,1,Clc1c(Cl)c(Cl)c2c(Cl)c(Cl)c(Cl)c(Cl)c2c1Cl,0,0,0,0
"2,2,4-trimethyl-1H-quinoline",374.15,1,CC1=CC(NC2=CC=CC=C12)(C)C,0,0,0,0
"2,3-dihydro-1-benzothiophene",357.05,1,c1ccc2c(c1)CCS2,0,0,0,0
phenylhydrazine,361.15,1,C1=CC=C(C=C1)NN,0,0,0,0
"Benzoic acid, 3-nitro-",430.65,1,O=C(O)c1cccc([N+](=O)[O-])c1,0,0,0,1
"1,2-Dimethyl-3-chlorobenzene",336.75,1,Cc1cccc(Cl)c1C,0,0,0,0
"1,3-Propanediol, 2-((benzoyloxy)methyl)-2-methyl-, 1,3-dibenzoate",518.45,1,CC(COC(=O)c1ccccc1)(COC(=O)c1ccccc1)COC(=O)c1ccccc1,0,0,0,0
"Butanoic acid, 4-chloro-3-oxo-, ethyl ester",369.15,1,CCOC(=O)CC(=O)CCl,0,0,0,1
"2-Pentanone, 5-(diethylamino)-",338.15,1,CCN(CC)CCCC(C)=O,0,0,0,0
2-methyl-3-pentanol,319,1,CC(C)C(CC)O,0,0,0,0
"2H-Furo(2,3-h)(1)benzopyran-2-one",446.25,1,O=c1ccc2ccc3occc3c2o1,0,0,0,0
"Benzene, 1,2-dichloro-3-nitro-",397.05,1,O=[N+]([O-])c1cccc(Cl)c1Cl,0,0,0,0
"Isothiocyanic acid, p-bromophenyl ester",396.35,1,S=C=Nc1ccc(Br)cc1,0,0,0,1
"5-ethyl-1,2,3,4-tetrahydronaphthalene",371.55,1,CCc1cccc2c1CCCC2,0,0,0,0
"3-Pyridinol, 2-chloro-",418.15,1,Oc1cccnc1Cl,0,0,0,0
"Phosphoric acid, dimethyl-4-nitrophenyl ester (9CI)",417.45,1,Cc1c(OP(=O)([O-])[O-])ccc([N+](=O)[O-])c1C,0,0,0,1
4-[(4-amino-3-chlorophenyl)methyl]-2-chloroaniline,386.15,1,C1=CC(=C(C=C1CC2=CC(=C(C=C2)N)Cl)Cl)N,0,0,0,0
"1,3-cyclohexadiene",257,1,C1=CC=CCC1,0,0,0,0
"2-Propenoic acid, 2-methyl-, oxiranylmethyl ester",349.261,1,C=C(C)C(=O)OCC1CO1,0,0,0,1
"Pyridine, 2-fluoro-",301.483,1,Fc1ccccn1,0,0,0,0
"Benzene, 1-(1,1-dimethylethyl)-3,5-dimethyl-2,4,6-trinitro-",447.35,1,Cc1c([N+](=O)[O-])c(C)c([N+](=O)[O-])c(C(C)(C)C)c1[N+](=O)[O-],0,0,0,0
2-methylquinolin-4-amine,451.15,1,Cc1cc(N)c2ccccc2n1,0,0,0,0
"1,1-diphenylguanidine",443.15,1,C1=CC=C(C=C1)N(C2=CC=CC=C2)C(=N)N,0,0,0,0
"1,1,3-trichloropropan-2-one",352.15,1,O=C(CCl)C(Cl)Cl,0,0,0,0
"1H-1,4-Benzodiazepine, 7-chloro-2,3-dihydro-1-methyl-5-phenyl-",471.55,1,CN1CCN=C(c2ccccc2)c2cc(Cl)ccc21,0,0,0,0
4-chloro-3-methylphenol,383.15,1,CC1=C(C=CC(=C1)O)Cl,0,0,0,0
"Benzamide, 2,3,5-trichloro-N-(3,5-dichloro-2-hydroxyphenyl)-6-hydroxy-",496.65,1,O=C(Nc1cc(Cl)cc(Cl)c1O)c1c(O)c(Cl)cc(Cl)c1Cl,0,0,0,0
"1-Butanol, 2,2-dimethyl-",310.55,1,CCC(C)(C)CO,0,0,0,0
o-diethylbenzene,328,1,C(C)C1=C(C=CC=C1)CC,0,0,0,0
"Butanoic acid, 2-amino-4-(S-methylsulfonimidoyl)- (9CI)",439.95,1,CS(=N)(=O)CCC(N)C(=O)O,0,0,0,1
"2-Propenoic acid, 3-phenyl-, ethyl ester",421.75,1,CCOC(=O)C=Cc1ccccc1,0,0,0,1
"5-[2-(2-butoxyethoxy)ethoxymethyl]-6-propyl-1,3-benzodioxole",444.15,1,CCCCOCCOCCOCC1=CC2=C(C=C1CCC)OCO2,0,0,0,0
"4-(Chloromethyl)-1,2-dimethoxybenzene",371.75,1,COc1ccc(CCl)cc1OC,0,0,0,0
"1,7-Octanediol, 3,7-dimethyl-",381.65,1,CC(CCO)CCCC(C)(C)O,0,0,0,0
FUMARIC acid,471,1,O=C(O)/C=C/C(=O)O,0,0,0,1
8-methoxyquinoline,375.85,1,COc1cccc2cccnc12,0,0,0,0
"3-Buten-1-ol, 3-methyl-",313.25,1,C=C(C)CCO,0,0,0,0
3-HYDROXY-2-METHYL PROPIONALDEHYDE,352,1,CC(C=O)CO,0,0,0,0
but-3-en-2-one,266.15,1,CC(=O)C=C,0,0,0,0
"1,3,5-Cycloheptatriene",299.85,1,C1=CC=CCC=C1,0,0,0,0
"penta-1,4-dien-3-ol",303.15,1,C=CC(O)C=C,0,0,0,0
"4-Pyridinamine, N,N-dimethyl-",344.85,1,CN(C)c1ccncc1,0,0,0,0
pinacolone,278,1,CC(C(C)(C)C)=O,0,0,0,0
"p-Cresol, 2-bromo-",356.05,1,Cc1ccc(O)c(Br)c1,0,0,0,0
"1-Octanol, 3,7-dimethyl-",368.15,1,CC(C)CCCC(C)CCO,0,0,0,0
10H-phenothiazine,475.15,1,C1=CC=C2C(=C1)NC3=CC=CC=C3S2,0,0,0,0
(4R)-1-methyl-4-propan-2-ylcyclohexene,316.45,1,CC1=CC[C@H](C(C)C)CC1,0,0,0,0
"2,5-DIMETHYLOCTANE",306,1,CCCC(C)CCC(C)C,0,0,0,0
"2-Pyrazolin-5-one, 4-dimethylaminomethylene-1,3-diphenyl-",467.65,1,CN(C)C=C1C(=O)N(c2ccccc2)N=C1c1ccccc1,0,0,0,0
"1,3,5-Triazine-2,4-diamine, 6-chloro-N,N,N'-triethyl-",453.25,1,CCNc1nc(Cl)nc(N(CC)CC)n1,0,0,0,0
cis-2-hexene,248,1,C\C=C/CCC,0,0,0,0
"2-Hepten-1-ol, (E)- (8CI)(9CI)",341.65,1,CCCC/C=C/CO,0,0,0,0
"1,2,4-trimethyl-5-nitrobenzene",395.05,1,Cc1cc(C)c([N+](=O)[O-])cc1C,0,0,0,0
"Benzimidazole, 5-nitro- (8CI)",514.65,1,O=[N+]([O-])c1ccc2nc[nH]c2c1,0,0,0,0
PHENANTHRENE,444,1,c1ccc2c(c1)ccc1ccccc12,0,0,0,0
"2,5-dimethylhexane-3,4-dione",323.65,1,CC(C)C(=O)C(=O)C(C)C,0,0,0,0
"2H-1-Benzopyran-2-one, 4-hydroxy-3-(3-oxo-1-phenylbutyl)-",461.978,1,CC(=O)CC(c1ccccc1)c1c(O)c2ccccc2oc1=O,0,0,0,0
"Benzamide, p-cyano- (8CI)",438.75,1,N#Cc1ccc(C(N)=O)cc1,0,0,0,0
"3H-1,2,4-Dithiazole-3-thione, 5-amino- (8CI)(9CI)",397.15,1,Nc1nc(=S)ss1,0,0,0,0
aziridin-1-ium,262.15,1,C1C[NH2+]1,0,0,0,0
1-benzyl-4-chlorobenzene,395.15,1,Clc1ccc(Cc2ccccc2)cc1,0,0,0,0
2-BUTYL-1-DECANOL,422,1,CCCCCCCCC(CO)CCCC,0,0,0,0
"Phenol, 2,4-dichloro-, benzenesulfonate",490.15,1,O=S(=O)(Oc1ccc(Cl)cc1Cl)c1ccccc1,0,0,0,0
(E)-4-phenylbut-3-en-2-one,338.75,1,CC(=O)/C=C/c1ccccc1,0,0,0,0
dibutylether,298,1,C(CCC)OCCCC,0,0,0,0
"N,N,2-trimethylaniline",356.15,1,CC1=CC=CC=C1N(C)C,0,0,0,0
"Benzenemethanamine, N-(2-chloroethyl)-N-(1-methyl-2-phenoxyethyl)-",457.65,1,CC(COc1ccccc1)N(CCCl)Cc1ccccc1,0,0,0,0
"Benzene, 1,3,5-tribromo-",388.65,1,Brc1cc(Br)cc(Br)c1,0,0,0,0
"Methanone, (4-bromophenyl)phenyl- (9CI)",354.45,1,O=C(c1ccccc1)c1ccc(Br)cc1,0,0,0,0
"1H-Indole-3-acetic acid, 1-(4-chlorobenzoyl)-5-methoxy-2-methyl-",528.956,1,COc1ccc2c(c1)c(CC(=O)O)c(C)n2C(=O)c1ccc(Cl)cc1,0,0,0,1
butylacrylate,310,1,C(CCC)OC(C=C)=O,0,0,0,0
"Biphenyl, 4-octyl- (6CI,7CI,8CI)",474.35,1,CCCCCCCCc1ccc(-c2ccccc2)cc1,0,0,0,0
3-methyl-1-benzofuran,346.35,1,Cc1coc2ccccc12,0,0,0,0
"Quinoline, 4-nitro-, 1-oxide",461.35,1,O=[N+]([O-])c1cc[n+]([O-])c2ccccc12,0,0,0,0
2-(Hydroxymethyl)-5-nitro-1H-imidazole-1-ethanol,514.35,1,O=[N+]([O-])c1cnc(CO)n1CCO,0,0,0,0
"Phosphorodithioic acid, O,O-dimethyl S-2-(methylthio)ethyl ester",397.05,1,COP(=S)(OC)SCCSC,0,0,0,1
"9,10-Anthracenedione, 1-amino-2,4-dibromo-",559.85,1,Nc1c(Br)cc(Br)c2c1C(=O)c1ccccc1C2=O,0,0,0,0
2-methyl-1-propanol,301,1,CC(CO)C,0,0,0,0
"1,4-Benzenediamine, 2-nitro-",460.05,1,Nc1ccc(N)c([N+](=O)[O-])c1,0,0,0,0
"trans-3,4-dimethylcyclopentanone",314,1,C[C@@H]1CC(C[C@H]1C)=O,0,0,0,0