compound,flashpoint,pure substance,smiles,is_silicon,is_metallic,is_tin,is_acid
"Hexanamide, 2,3-epoxy-2-ethyl-",418.95,1,CCCC1OC1(CC)C(N)=O,0,0,0,0
"Acetophenone, 2',4'-dichloro- (8CI)",374.05,1,CC(=O)c1ccc(Cl)cc1Cl,0,0,0,0
(E)-hept-2-enoic acid,406.55,1,CCCC/C=C/C(=O)O,0,0,0,1
4-methyl-2-pentanone,287,1,CC(CC(C)=O)C,0,0,0,0
"Acetamide, N-4-pyridinyl- (9CI)",435.15,1,CC(=O)Nc1ccncc1,0,0,0,0
prop-2-en-1-ol,294,1,OCC=C,0,0,0,0
"Biphenyl, 4,4'-dichloro- (8CI)",418.35,1,Clc1ccc(-c2ccc(Cl)cc2)cc1,0,0,0,0
(2-chlorophenyl)methanol,368.55,1,OCc1ccccc1Cl,0,0,0,0
"1-(2,4,6-trimethylphenyl)ethanone",372.15,1,CC(=O)c1c(C)cc(C)cc1C,0,0,0,0
diethyldisulfide,312,1,C(C)SSCC,0,0,0,0
allylcyclopentane,285,1,C(C=C)C1CCCC1,0,0,0,0
2-(diethylamino)ethyl prop-2-enoate,364.15,1,CCN(CC)CCOC(=O)C=C,0,0,0,0
"4,5-Dichloro-2-nitroaniline",436.85,1,Nc1cc(Cl)c(Cl)cc1[N+](=O)[O-],0,0,0,0
"2,3,6-trimethylpyridine",320.75,1,Cc1ccc(C)c(C)n1,0,0,0,0
"3,3-dimethyl-1,2-dihydroindene",336.75,1,CC1(C)CCc2ccccc21,0,0,0,0
2-[2-[2-(2-hydroxyethoxy)ethoxy]ethoxy]ethyl octadecanoate,436.15,1,CCCCCCCCCCCCCCCCCC(=O)OCCOCCOCCOCCO,0,0,0,0
"1-Piperazineethanol, 4-(3-(2-chloro-10H-phenothiazin-10-yl)propyl)-",577.95,1,OCCN1CCN(CCCN2c3ccccc3Sc3ccc(Cl)cc32)CC1,0,0,0,0
"2-Propenoic acid, 2-methyl-, 1-methylethyl ester",304.15,1,C=C(C)C(=O)OC(C)C,0,0,0,1
"Propanamide, N-phenyl-N-(1-(2-phenylethyl)-4-piperidinyl)- (9CI)",458.95,1,CCC(=O)N(c1ccccc1)C1CCN(CCc2ccccc2)CC1,0,0,0,0
Diheptylamine (8CI),381.05,1,CCCCCCCNCCCCCCC,0,0,0,0
3-methyl-1-(3-methylbutyldisulfanyl)butane,354.35,1,CC(C)CCSSCCC(C)C,0,0,0,0
2-[2-[2-(2-methoxyethoxy)ethoxy]ethoxy]ethanol,434.15,1,COCCOCCOCCOCCO,0,0,0,0
"1,3-Dioxolane, 4-methyl-2-vinyl-",278.45,1,C=CC1OCC(C)O1,0,0,0,0
"ethyl 2,2-diethoxyacetate",346.15,1,CCOC(=O)C(OCC)OCC,0,0,0,0
"Acetic acid, butoxy-",370.65,1,CCCCOCC(=O)O,0,0,0,1
dodecan-2-ol,370.95,1,CCCCCCCCCCC(C)O,0,0,0,0
"2-Naphthalenamine, N-phenyl-",482.35,1,c1ccc(Nc2ccc3ccccc3c2)cc1,0,0,0,0
2-(2-methoxyethyl)pyridine,336.95,1,COCCc1ccccn1,0,0,0,0
"Formamide, N-9H-fluoren-2-yl- (9CI)",542.75,1,O=CNc1ccc2c(c1)Cc1ccccc1-2,0,0,0,0
ethyl (9Z)-octadec-9-enoate,365,1,CCCCCCCC/C=C\CCCCCCCC(=O)OCC,0,0,0,0
11H-Benzo(a)fluoren-11-one,467.05,1,O=C1c2ccccc2-c2ccc3ccccc3c21,0,0,0,0
"methyl (6E,9Z,12Z)-octadeca-6,9,12-trienoate",335,1,CCCCC/C=C\C/C=C\C/C=C/CCCCC(=O)OC,0,0,0,0
1-(3-methoxyphenyl)ethanone,364.35,1,COc1cccc(C(C)=O)c1,0,0,0,0
2-phenoxypropanoic acid,359.15,1,CC(Oc1ccccc1)C(=O)O,0,0,0,1
2-cyclohexylethylcyclohexane,379.85,1,C1CCC(CCC2CCCCC2)CC1,0,0,0,0
"2,2,3,4,4,4-Hexafluorobutyl methacrylate",329.15,1,C=C(C)C(=O)OCC(F)(F)C(F)C(F)(F)F,0,0,0,0
"2,2,3-trimethylpentane",270,1,CC(C)(C(CC)C)C,0,0,0,0
2-methylprop-2-enenitrile,286.15,1,CC(=C)C#N,0,0,0,0
"4H-Pyran-4-one, 3-hydroxy-2-methyl-",400.47,1,Cc1occc(=O)c1O,0,0,0,0
1-propylpiperidine,312.95,1,CCCN1CCCCC1,0,0,0,0
"2-Pyridinecarboxylic acid, 3,6-dichloro-",422.729,1,O=C(O)c1nc(Cl)ccc1Cl,0,0,0,1
"1,4-Butanediol, dimethanesulfonate",507.55,1,CS(=O)(=O)OCCCCOS(C)(=O)=O,0,0,0,0
"Dibenzo(b,e)(1,4)dioxin",388.85,1,c1ccc2c(c1)Oc1ccccc1O2,0,0,0,0
"Benzene, 1-methoxy-4-(2-propenyl)-",354.15,1,C=CCc1ccc(OC)cc1,0,0,0,0
"2-methoxy-N,N-dimethylaniline",332.35,1,COc1ccccc1N(C)C,0,0,0,0
Cyclohexenecarboxaldehyde,344.25,1,O=CC1=CCCCC1,0,0,0,0
"Ether, p-bromophenyl phenyl (8CI)",391.55,1,Brc1ccc(Oc2ccccc2)cc1,0,0,0,0
"2,4-Hexadienal, (2E,4E)-",341.15,1,C/C=C/C=C/C=O,0,0,0,0
"2-Propen-1-ol, 3-phenyl-",397.912,1,OCC=Cc1ccccc1,0,0,0,0
1-ethyl-2-methoxybenzene,333.75,1,CCc1ccccc1OC,0,0,0,0
NIOBIUM(V) ETHOXIDE,347.15,1,CC[O-].CC[O-].CC[O-].CC[O-].CC[O-].[Nb+5],0,1,0,0
"Carbamic acid, acetylmethyl-, 3-(1,1-dimethylethyl)phenyl ester",434.25,1,CC(=O)CNC(=O)Oc1cccc(C(C)(C)C)c1,0,0,0,1
3-ethyl-2-methylpent-1-ene,279.85,1,C=C(C)C(CC)CC,0,0,0,0
"2-Pyrrolidinone, 1-ethyl-",349.25,1,CCN1CCCC1=O,0,0,0,0
"Benzenamine, 4,4'-(1,3-phenylenebis(oxy))bis-",544.05,1,Nc1ccc(Oc2cccc(Oc3ccc(N)cc3)c2)cc1,0,0,0,0
"3,3-dimethoxyprop-1-ene",270.35,1,C=CC(OC)OC,0,0,0,0
pentadecan-8-one,356.25,1,CCCCCCCC(=O)CCCCCCC,0,0,0,0
"1,4,5,8-Naphthalenetetracarboxylic 1,8:4,5-dianhydride (8CI)",553.55,1,O=c1oc(=O)c2ccc3c(=O)oc(=O)c4ccc1c2c43,0,0,0,0
"2,4-Xylenol, 6,6'-butylidenebis-",475.05,1,CCCC(c1cc(C)cc(C)c1O)c1cc(C)cc(C)c1O,0,0,0,0
S-ethyl ethanethioate,291.45,1,CCSC(C)=O,0,0,0,0
"Benzaldehyde, 4-(pentyloxy)-",402.15,1,CCCCCOc1ccc(C=O)cc1,0,0,0,0
"Ethanamine, N,N-dimethyl-2-(1-phenyl-1-(2-pyridinyl)ethoxy)-",447.65,1,CN(C)CCOC(C)(c1ccccc1)c1ccccn1,0,0,0,0
"benzene-1,2-dicarbonitrile",435.15,1,C1=CC=C(C(=C1)C#N)C#N,0,0,0,0
2-decanol,358,1,CC(CCCCCCCC)O,0,0,0,0
1-EICOSANOL,467,1,CCCCCCCCCCCCCCCCCCCCO,0,0,0,0
"trans-1,4-dimethylcyclohexane",279,1,C[C@@H]1CC[C@H](CC1)C,0,0,0,0
"1,1,1-trimethoxyethane",289.15,1,COC(C)(OC)OC,0,0,0,0
"Oxirane, 2,2'-(oxybis(methylene))bis-",343.75,1,C(OCC1CO1)C1CO1,0,0,0,0
hexanedioate,658.15,1,C(CCC(=O)[O-])CC(=O)[O-],0,0,0,0
"Benzenemethanamine, alpha-methyl-",348.953,1,CC(N)c1ccccc1,0,0,0,0
4-methoxy-4-methylpentan-2-one,334.15,1,CC(=O)CC(C)(C)OC,0,0,0,0
"1,1,1,2,2-pentachloro-2-fluoroethane",313.95,1,FC(Cl)(Cl)C(Cl)(Cl)Cl,0,0,0,0
furan-2-ylmethanol,348.15,1,C1=COC(=C1)CO,0,0,0,0
methyl (11Z)-octadec-11-enoate,335,1,CCCCCC/C=C\CCCCCCCCCC(=O)OC,0,0,0,0
"Dibenzo-p-dioxin, 1,2,3,4,6,7,8,9-octachloro-",468.85,1,Clc1c(Cl)c(Cl)c2c(c1Cl)Oc1c(Cl)c(Cl)c(Cl)c(Cl)c1O2,0,0,0,0
"Butyric acid, 4,4,4-trinitro- (8CI)",429.55,1,O=C(O)CCC([N+](=O)[O-])([N+](=O)[O-])[N+](=O)[O-],0,0,0,1
"3-METHYL-1,4-PENTADIENE",235,1,C=CC(C)C=C,0,0,0,0
"1-N,4-N-diphenylbenzene-1,4-diamine",477.15,1,C1=CC=C(C=C1)NC2=CC=C(C=C2)NC3=CC=CC=C3,0,0,0,0
propyl2-methylpropanoate,303,1,C(CC)OC(C(C)C)=O,0,0,0,0
dibutan-2-yl butanedioate,382.95,1,CCC(C)OC(=O)CCC(=O)OC(C)CC,0,0,0,0
Ethyl oxalate,349.15,1,CCOC(=O)C(=O)[O-],0,0,0,0
"Benzene, 1-methoxy-4-methyl-",326.45,1,COc1ccc(C)cc1,0,0,0,0
"Naphtho(1,2-h)quinoline",476.35,1,c1ccc2c(c1)ccc1c2ccc2cccnc21,0,0,0,0
"2,2,4,4-tetramethyloxolane",297.45,1,CC1(C)COC(C)(C)C1,0,0,0,0
"2,6-dimethyloctane",307,1,CC(C)CCCC(CC)C,0,0,0,0
"2H-Indazole, 2-methyl-6-nitro-",447.35,1,Cn1cc2ccc([N+](=O)[O-])cc2n1,0,0,0,0
nitrocyclohexane,354.35,1,O=[N+]([O-])C1CCCCC1,0,0,0,0
2-nitropentane,319,1,[N+](=O)([O-])C(C)CCC,0,0,0,0
"3-Octanol, 3-methyl-",344.25,1,CCCCCC(C)(O)CC,0,0,0,0
"5beta-Cholan-24-oic acid, 3,7,12-trioxo- (8CI)",592.65,1,C[C@H](CCC(=O)O)[C@H]1CC[C@H]2[C@@H]3C(=O)C[C@@H]4CC(=O)CC[C@]4(C)[C@H]3CC(=O)[C@@]21C,0,0,0,1
methyl 2-hydroxy-2-methylpropanoate,309.95,1,COC(=O)C(C)(C)O,0,0,0,0
2-piperidin-2-ylethanol,375.35,1,OCCC1CCCCN1,0,0,0,0
"2,2-dinitropropane",348.35,1,CC(C)([N+](=O)[O-])[N+](=O)[O-],0,0,0,0
"1-Propanamine, 3-ethoxy-",305.95,1,CCOCCCN,0,0,0,0
5-nonanone,333,1,CCCCC(CCCC)=O,0,0,0,0
1-chloro-1-(1-chloroethoxy)ethane,328.15,1,CC(Cl)OC(C)Cl,0,0,0,0
"Glyoxylonitrile, phenyl- (8CI)",357.15,1,N#CC(=O)c1ccccc1,0,0,0,0
Hydrocinnamic acid (8CI),443.195,1,O=C(O)CCc1ccccc1,0,0,0,1
4-bromobenzenethiol,366.85,1,Sc1ccc(Br)cc1,0,0,0,0
N-ethylacetamide,379,1,C(C)NC(C)=O,0,0,0,0
1-butylpiperidine,332.95,1,CCCCN1CCCCC1,0,0,0,0
(2S)-2-[(2S)-oxiran-2-yl]oxirane,318.75,1,C1O[C@@H]1[C@@H]1CO1,0,0,0,0
4-phenylphenol,439.15,1,C1=CC=C(C=C1)C2=CC=C(C=C2)O,0,0,0,0
3-methoxy-2-prop-2-enylphenol,377.05,1,C=CCc1c(O)cccc1OC,0,0,0,0
"Phenol, 5-methyl-2-nitro-",382.15,1,Cc1ccc([N+](=O)[O-])c(O)c1,0,0,0,0
2-chlorobenzaldehyde,361.15,1,C1=CC=C(C(=C1)C=O)Cl,0,0,0,0
isopropylbutanoate,297,1,C(C)(C)OC(CCC)=O,0,0,0,0
"2-bromo-1,1-dichloroethene",292.55,1,ClC(Cl)=CBr,0,0,0,0
"(1S,2R,6S,7R)-4-[[(1R,2R)-2-[[4-(1,2-benzothiazol-3-yl)piperazin-1-yl]methyl]cyclohexyl]methyl]-4-azatricyclo[5.2.1.02,6]decane-3,5-dione",282.15,1,C1CCC(C(C1)CN2CCN(CC2)C3=NSC4=CC=CC=C43)CN5C(=O)C6C7CCC(C7)C6C5=O,0,0,0,0
"Phosphonothioic acid, ethyl-, O-ethyl O-(2,4,5-trichlorophenyl) ester",451.95,1,CCOP(=S)(CC)Oc1cc(Cl)c(Cl)cc1Cl,0,0,0,1
3-hexanethiol,303,1,CCC(CCC)S,0,0,0,0
3-Aminophenanthrene,502.15,1,Nc1ccc2ccc3ccccc3c2c1,0,0,0,0
"Acetic acid, cyano-, butyl ester",364.15,1,CCCCOC(=O)CC#N,0,0,0,1
hexanoicanhydride,386,1,C(CCCCC)(=O)OC(CCCCC)=O,0,0,0,0
naphthalene-1-carbonitrile,413.85,1,N#Cc1cccc2ccccc12,0,0,0,0
"Benzonitrile, 2-amino-5-chloro-",402.85,1,N#Cc1cc(Cl)ccc1N,0,0,0,0
methylhexanoate,314,1,COC(CCCCC)=O,0,0,0,0
oxalyl dichloride,277.65,1,O=C(Cl)C(=O)Cl,0,0,0,0
"2-Butenoic acid, 3-((dimethoxyphosphinyl)oxy)-, methyl ester, (E)-",388.25,1,COC(=O)/C=C(\C)OP(=O)(OC)OC,0,0,0,1
"1,1'-biphenyl;phenoxybenzene",397.15,1,C1=CC=C(C=C1)C2=CC=CC=C2.C1=CC=C(C=C1)OC2=CC=CC=C2,0,0,0,0
(3-methoxyphenyl)methanol,383.05,1,COc1cccc(CO)c1,0,0,0,0
"Ethanol, 2,2'-(cyclohexylimino)bis-",449.35,1,OCCN(CCO)C1CCCCC1,0,0,0,0
1-isocyanato-2-methylpropane,290.25,1,CC(C)CN=C=O,0,0,0,0
"Benzoic acid, 2-(acetyloxy)-5-bromo- (9CI)",449.75,1,CC(=O)Oc1ccc(Br)cc1C(=O)O,0,0,0,1
1-butyl-4-methylbenzene,344.3,1,CCCCc1ccc(C)cc1,0,0,0,0
"Methane, iodo-",280.948,1,CI,0,0,0,0
Benzo(def)chrysene,501.75,1,c1ccc2c(c1)cc1ccc3cccc4ccc2c1c34,0,0,0,0
1-ethenyl-2-methoxybenzene,343.75,1,C=Cc1ccccc1OC,0,0,0,0
4-chlorophenol,394.15,1,C1=CC(=CC=C1O)Cl,0,0,0,0
"6-Octen-1-ol, 3,7-dimethyl-, formate",365.35,1,CC(C)=CCCC(C)CCOC=O,0,0,0,0
"3,4-diethylhexane",358.95,1,CCC(CC)C(CC)CC,0,0,0,0
3-ethylpentan-3-ol,313.15,1,CCC(O)(CC)CC,0,0,0,0
"Benzoic acid, 5-chloro-2-hydroxy-",420.75,1,O=C(O)c1cc(Cl)ccc1O,0,0,0,1
3-hydroxypropyl prop-2-enoate,370.15,1,C=CC(=O)OCCCO,0,0,0,0
"1-(2,5-dimethylphenyl)ethanone",361.95,1,CC(=O)c1cc(C)ccc1C,0,0,0,0
S-t-butyl thioacetate,306,1,CC(=O)SC(C)(C)C,0,0,0,0
"2-Furancarboxaldehyde, 5-methyl-",345.15,1,Cc1ccc(C=O)o1,0,0,0,0
"Phenol, 2,6-bis(1,1-dimethylethyl)-",391.15,1,CC(C)(C)c1cccc(C(C)(C)C)c1O,0,0,0,0
2-methoxycyclohexanone,342,1,COC1C(CCCC1)=O,0,0,0,0
"ethyl 3,4-dimethoxybenzoate",402.65,1,CCOC(=O)c1ccc(OC)c(OC)c1,0,0,0,0
thiane,294.25,1,C1CCSCC1,0,0,0,0
"Butanoic acid, 2-acetyl-3-oxo-, methyl ester (9CI)",355.55,1,COC(=O)C(C(C)=O)C(C)=O,0,0,0,1
4-ethylpiperidine,306.95,1,CCC1CCNCC1,0,0,0,0
"(8R,9S,10R,13S,14S,17S)-17-hydroxy-10,13,17-trimethyl-2,6,7,8,9,11,12,14,15,16-decahydro-1H-cyclopenta[a]phenanthren-3-one",278.15,1,CC12CCC(=O)C=C1CCC3C2CCC4(C3CCC4(C)O)C,0,0,0,0
"Benzoxazole, 2-p-tolyl- (8CI)",398.55,1,Cc1ccc(-c2nc3ccccc3o2)cc1,0,0,0,0
"1-ethyl-2,3-dimethylbenzene",338,1,C(C)C1=C(C(=CC=C1)C)C,0,0,0,0
N-methylpyridin-2-amine,360.95,1,CNc1ccccn1,0,0,0,0
"2,4,6-tris[(dimethylamino)methyl]phenol",397.15,1,CN(C)CC1=CC(=C(C(=C1)CN(C)C)O)CN(C)C,0,0,0,0
"1,2,3,5-tetramethylbenzene",336.15,1,CC1=CC(=C(C(=C1)C)C)C,0,0,0,0
prop-2-yn-1-ol,306.15,1,C#CCO,0,0,0,0
"[2,3-dihydroxy-5-[[(2R,3R,4S,5R,6S)-3,4,5,6-tetrakis[[3,4-dihydroxy-5-(3,4,5-trihydroxybenzoyl)oxybenzoyl]oxy]oxan-2-yl]methoxycarbonyl]phenyl] 3,4,5-trihydroxybenzoate",472.15,1,C1=C(C=C(C(=C1O)O)O)C(=O)OC2=CC(=CC(=C2O)O)C(=O)OCC3C(C(C(C(O3)OC(=O)C4=CC(=C(C(=C4)OC(=O)C5=CC(=C(C(=C5)O)O)O)O)O)OC(=O)C6=CC(=C(C(=C6)OC(=O)C7=CC(=C(C(=C7)O)O)O)O)O)OC(=O)C8=CC(=C(C(=C8)OC(=O)C9=CC(=C(C(=C9)O)O)O)O)O)OC(=O)C1=CC(=C(C(=C1)OC(=O)C1=CC(=C(C(=C1)O)O)O)O)O,0,0,0,0
Methyl ethyl ether,236.15,1,CCOC,0,0,0,0
Butyraldehyde,266.45,1,CCCC=O,0,0,0,0
"2,4dimethylpyridine",310.35,1,Cc1ccnc(C)c1,0,0,0,0
"1,2propanediol",380,1,CC(O)CO,0,0,0,0
2-ETHYLHEXYL ACRYLATE,355.1,1,C=CC(=O)OCC(CC)CCCC,0,0,0,0
cyclohexanol,340.928,1,OC1CCCCC1,0,0,0,0
2methyl1propanol,301,1,CC(C)CO,0,0,0,0
3-methylbutan-1-ol,316,1,OCCC(C)C,0,0,0,0
methylcyclohexane,269.15,1,CC1CCCCC1,0,0,0,0
METHYL tert-PENTYL ETHER,262.1,1,CCC(C)(C)OC,0,0,0,0
Dibenzylether,408.15,1,c1ccc(COCc2ccccc2)cc1,0,0,0,0
cyclooctane,301,1,C1CCCCCCC1,0,0,0,0
propan-1-ol,298.15,1,CCCO,0,0,0,0
"Propionaldehyde, 3-(methylthio)-",334.25,1,CSCCC=O,0,0,0,0
1propoxy2propanol,321.15,1,CCCOCC(C)O,0,0,0,0
hexanal,298,1,CCCCCC=O,0,0,0,0
3ethyl4methylhexane,297.15,1,CCC(C)C(CC)CC,0,0,0,0
2-chloropentane,282.95,1,CCCC(C)Cl,0,0,0,0
1decene,320.15,1,C=CCCCCCCCC,0,0,0,0
Butanethiol,274.1,1,CCCCS,0,0,0,0
tetraethylsilane,299.25,1,CC[Si](CC)(CC)CC,1,1,0,0
1-Pentadecene,385.1,1,C=CCCCCCCCCCCCCC,0,0,0,0
chloroethane,223.15,1,CCCl,0,0,0,0
2-ethylnaphthalene,377.55,1,CCc1ccc2ccccc2c1,0,0,0,0
Diethyl ketone,286.15,1,CCC(=O)CC,0,0,0,0
Acetylchloride,277.15,1,CC(=O)Cl,0,0,0,0
"1,2-ETHANEDITHIOL",317.1,1,SCCS,0,0,0,0
1pentyne,239,1,C#CCCC,0,0,0,0
Octanoylchloride,355.15,1,CCCCCCCC(=O)Cl,0,0,0,0
"pentane-2,4-diol",374,1,CC(O)CC(C)O,0,0,0,0
2-Methyl furan,243.15,1,Cc1ccco1,0,0,0,0
"2-Propenoic acid, 2-methyl-, 2-methylpropyl ester",319.15,1,C=C(C)C(=O)OCC(C)C,0,0,0,1
"1,4-diisopropylbenzene",349,1,CC(C)c1ccc(C(C)C)cc1,0,0,0,0
"2,5-dihydrofuran",256.45,1,C1=CCOC1,0,0,0,0
"2,3dimethylpentane",267,1,CCC(C)C(C)C,0,0,0,0
Tetraisocyanatosilane,323.15,1,O=C=N[Si](N=C=O)(N=C=O)N=C=O,1,1,0,0
Dichloroacetylchloride,339.25,1,O=C(Cl)C(Cl)Cl,0,0,0,0
Tetrahydrofuran,259.15,1,C1CCOC1,0,0,0,0
ethyl 2-cyanoacetate,383.15,1,CCOC(=O)CC#N,0,0,0,0
Lauraldehyde (8CI),375.15,1,CCCCCCCCCCCC=O,0,0,0,0
"N,N-diethylhydroxylamine",318.15,1,CCN(O)CC,0,0,0,0
1-butoxypropan-2-ol,336.15,1,CCCCOCC(C)O,0,0,0,0
cyclohexane,255,1,C1CCCCC1,0,0,0,0
3-ethylhexane,279,1,CCCC(CC)CC,0,0,0,0
2-methyl-1-pentanol,327,1,CCCC(C)CO,0,0,0,0
3-Chloro-2-methylpropylmethyldichlorosilane,363.15,1,CC(CCl)C[Si](C)(Cl)Cl,1,1,0,0
1-Dodecene,346.1,1,C=CCCCCCCCCCC,0,0,0,0
p-CHLOROTOLUENE,325,1,Cc1ccc(Cl)cc1,0,0,0,0
n-BUTYLCYCLOHEXANE,321,1,CCCCC1CCCCC1,0,0,0,0
"Octane, 2-methyl-",299.1,1,CCCCCCC(C)C,0,0,0,0
"Phosphorous acid, triethyl ester",327.25,1,CCOP(OCC)OCC,0,0,0,1
Hexamethylcyclotrisiloxane,305.15,1,C[Si]1(C)O[Si](C)(C)O[Si](C)(C)O1,1,1,0,0
n-PENTYLBENZENE,338.1,1,CCCCCc1ccccc1,0,0,0,0
2-(2-hexoxyethoxy)ethanol,414.15,1,CCCCCCOCCOCCO,0,0,0,0
"Benzaldehyde, 3-methyl-",351.15,1,Cc1cccc(C=O)c1,0,0,0,0
Dimethylchlorosilane,245.15,1,C[SiH](C)Cl,1,1,0,0
1-iodopentane,316,1,CCCCCI,0,0,0,0
1-iodobutane,306,1,ICCCC,0,0,0,0
diethylcyanamide,342.15,1,CCN(C#N)CC,0,0,0,0
2ethylhexanal,317.15,1,CCCCC(C=O)CC,0,0,0,0
trans-3-octene,282,1,CC/C=C/CCCC,0,0,0,0
(E)-2-methylbut-2-enal,291.45,1,C/C=C(\C)C=O,0,0,0,0
"(4S,4aR,6S)-4,4a-dimethyl-6-prop-1-en-2-yl-3,4,5,6,7,8-hexahydronaphthalen-2-one",373.15,1,CC1CC(=O)C=C2C1(CC(CC2)C(=C)C)C,0,0,0,0
Tetramethoxysilane,294.15,1,CO[Si](OC)(OC)OC,1,1,0,0
di-tert-butyl disulfide,340,1,CC(C)(C)SSC(C)(C)C,0,0,0,0
3-methylheptan-3-ol,327.15,1,CCCCC(C)(O)CC,0,0,0,0
2-undecanone,362,1,CCCCCCCCCC(C)=O,0,0,0,0
butanoic acid,345,1,CCCC(=O)O,0,0,0,1
2-chloroaniline,371.15,1,Nc1ccccc1Cl,0,0,0,0
diethyl butanedioate,363,1,CCOC(=O)CCC(=O)OCC,0,0,0,0
"N,N-dimethylformamide",330.15,1,CN(C)C=O,0,0,0,0
Allylamine,244.15,1,C=CCN,0,0,0,0
"1,2-Epoxy-propane",236.15,1,CC1CO1,0,0,0,0
Ethylbromoacetate,320.95,1,CCOC(=O)CBr,0,0,0,0
3methylcyclohexanol,335,1,CC1CCCC(O)C1,0,0,0,0
"Pyridine, 2-bromo-",327.55,1,Brc1ccccn1,0,0,0,0
butyl cyanide,313,1,CCCCC#N,0,0,0,0
"1,4dimethylbenzene",298,1,Cc1ccc(C)cc1,0,0,0,0
"2,3-dimethylbutane-2,3-diol",350.35,1,CC(C)(O)C(C)(C)O,0,0,0,0
CYCLOPENTYLAMINE,290.1,1,NC1CCCC1,0,0,0,0
"Phenol, 2,6-bis(1,1-dimethylethyl)-4-methyl-",391.55,1,Cc1cc(C(C)(C)C)c(O)c(C(C)(C)C)c1,0,0,0,0
"2,2-dimethyl-1-propanol",309,1,CC(C)(C)CO,0,0,0,0
"1-Propene, 3-chloro-2-methyl-",260.35,1,C=C(C)CCl,0,0,0,0
DIAMYL KETONE,361.5,1,CCCCCC(=O)CCCCC,0,0,0,0
"4,4-dimethylheptane",288,1,CCCC(C)(C)CCC,0,0,0,0
chloro(triethoxy)silane,313.25,1,CCO[Si](Cl)(OCC)OCC,1,1,0,0
SQUALANE,490,1,CC(C)CCCC(C)CCCC(C)CCCCC(C)CCCC(C)CCCC(C)C,0,0,0,0
Diethyl malonate,366.15,1,CCOC(=O)CC(=O)OCC,0,0,0,0
methanol,283.706,1,CO,0,0,0,0
4methyl1hexene-,258.15,1,C=CCC(C)CC,0,0,0,0
2-Methylpropane,186,1,CC(C)C,0,0,0,0
3-methyl-2-pentanol,313,1,CCC(C)C(C)O,0,0,0,0
n-PROPYL FORMATE,270,1,CCCOC=O,0,0,0,0
cis-3-methylcyclohexanol,335,1,C[C@H]1CCC[C@@H](O)C1,0,0,0,0
ButylDimethylAmine-,270.15,1,CCCCN(C)C,0,0,0,0
ETHANOL,286,1,CCO,0,0,0,0
2-ethoxy-2-methylpropane,254.15,1,CCOC(C)(C)C,0,0,0,0
"2-Propen-1-amine, N-2-propenyl-",288.75,1,C=CCNCC=C,0,0,0,0
Dibutoxymethane,333.15,1,CCCCOCOCCCC,0,0,0,0
"1,5pentanediamine",335.15,1,NCCCCCN,0,0,0,0
2-bromobutane,294.15,1,CCC(C)Br,0,0,0,0
1-ethenoxybutane,263.706,1,C=COCCCC,0,0,0,0
3-Pentenenitrile,313.15,1,CC=CCC#N,0,0,0,0
"pentane-1,5-diol",402.594,1,OCCCCCO,0,0,0,0
cyclohexyl ethanoate,330,1,CC(=O)OC1CCCCC1,0,0,0,0
"3,3-DIMETHYLHEXANE",272,1,CCCC(C)(C)CC,0,0,0,0
2methoxy1propanol,309.15,1,COC(C)CO,0,0,0,0
"2,2-dimethylbutane",225.15,1,CCC(C)(C)C,0,0,0,0
CyclopentylDichloroSilane,316.15,1,Cl[SiH](Cl)C1CCCC1,1,1,0,0
"2,6,6-trimethylbicyclo[3.1.1]hept-2-ene",306.15,1,CC1=CCC2CC1C2(C)C,0,0,0,0
3methyl1butyne-,221.15,1,C#CC(C)C,0,0,0,0
cyclooctene,298.15,1,C1=CCCCCCC1,0,0,0,0
ethyl formate,253,1,CCOC=O,0,0,0,0
ChloromethylTriethoxySilane,320.15,1,CCO[Si](CCl)(OCC)OCC,1,1,0,0
"1,7-octadiyne",296,1,C#CCCCCC#C,0,0,0,0
cyclohexyl methanoate,324,1,O=COC1CCCCC1,0,0,0,0
ethane,138.15,1,CC,0,0,0,0
"1,8nonadiene",299,1,C=CCCCCCC=C,0,0,0,0
n-OCTYLBENZENE,380.1,1,CCCCCCCCc1ccccc1,0,0,0,0
n-butylcyclopentane,308,1,CCCCC1CCCC1,0,0,0,0
2-ETHOXYETHYL ACETATE,328,1,CCOCCOC(C)=O,0,0,0,0
(2-bromo-2-nitroethenyl)benzene,327.15,1,C1=CC=C(C=C1)C=C([N+](=O)[O-])Br,0,0,0,0
"1,3-Hexanediol, 2-ethyl-",402.55,1,CCCC(O)C(CC)CO,0,0,0,0
3-ethylheptane,298.25,1,CCCCC(CC)CC,0,0,0,0
TriethoxySilane,299.15,1,CCO[SiH](OCC)OCC,1,1,0,0
"[(1S,6R,10S,11R,13S,14R)-13-acetyloxy-1,6-dihydroxy-8-(hydroxymethyl)-4,12,12,15-tetramethyl-5-oxo-14-tetracyclo[8.5.0.02,6.011,13]pentadeca-3,8-dienyl] tetradecanoate",310.15,1,CCCCCCCCCCCCCC(=O)OC1C(C2(C(C=C(CC3(C2C=C(C3=O)C)O)CO)C4C1(C4(C)C)OC(=O)C)O)C,0,0,0,0
Methylheptanoate,325,1,CCCCCCC(=O)OC,0,0,0,0
NonylAcetate,372.15,1,CCCCCCCCCOC(C)=O,0,0,0,0
"1,4-dimethylcyclohexane",283,1,CC1CCC(C)CC1,0,0,0,0
"1,3-DICHLORO-2-PROPANOL",358.1,1,OC(CCl)CCl,0,0,0,0
IsobutylTrimethoxySilane,315.15,1,CO[Si](CC(C)C)(OC)OC,1,1,0,0
benzyl methyl sulfide,346,1,CSCc1ccccc1,0,0,0,0
EthylTriethoxySilane,313.15,1,CCO[Si](CC)(OCC)OCC,1,1,0,0
3-AMINOPROPYLTRIMETHOXYSILANE,356.15,1,CO[Si](CCCN)(OC)OC,1,1,0,0
"1,3-diisopropylbenzene",349.9,1,CC(C)c1cccc(C(C)C)c1,0,0,0,0
"1-Propene, 3-bromo-",272.15,1,C=CCBr,0,0,0,0
Triphenylsilane,416.35,1,c1ccc([SiH](c2ccccc2)c2ccccc2)cc1,1,1,0,0
"1H-Indene, 2,3-dihydro-",323.15,1,c1ccc2c(c1)CCC2,0,0,0,0
2-ETHYL HEXANOIC acid,387.1,1,CCCCC(CC)C(=O)O,0,0,0,1
Benzaldehyde,336.15,1,O=Cc1ccccc1,0,0,0,0
"but-1-ene-1,4-diol",401.15,1,C(CO)C=CO,0,0,0,0
"1-Propyne, 3-bromo-",290.25,1,C#CCBr,0,0,0,0
"2,5-dimethoxy-2,5-dihydrofuran",324,1,COC1C=CC(OC)O1,0,0,0,0
p-dichlorobenzene,339,1,Clc1ccc(Cl)cc1,0,0,0,0
"Octane, 4-methyl-",296.1,1,CCCCC(C)CCC,0,0,0,0
"2,3,3-trimethylbut-1-ene",256,1,CC(=C)C(C)(C)C,0,0,0,0
Triethylorthoformate,303.15,1,CCOC(OCC)OCC,0,0,0,0
3-methyl-1-pentanol,331,1,CCC(C)CCO,0,0,0,0
"Phenol, 5-methyl-2-(1-methylethyl)-",374.15,1,Cc1ccc(C(C)C)c(O)c1,0,0,0,0
1-methyl-4-prop-1-en-2-ylcyclohexene,321.15,1,C=C(C)C1CC=C(C)CC1,0,0,0,0
n-pentylcyclohexane,339,1,CCCCCC1CCCCC1,0,0,0,0
2-MERCAPTOETHANOL,340.1,1,OCCS,0,0,0,0
BENZYL ALCOHOL,366.1,1,OCc1ccccc1,0,0,0,0
(Diethylamino)trimethylsilane,283.15,1,CCN(CC)[Si](C)(C)C,1,1,0,0
"N,N-bis(prop-2-enyl)prop-2-en-1-amine",312.15,1,C=CCN(CC=C)CC=C,0,0,0,0
"3,3-diethylpentane",305.95,1,CCC(CC)(CC)CC,0,0,0,0
HAFNIUM TETRAKIS(ETHYLMETHYLAMIDE),283.15,1,CC[N-]C.CC[N-]C.CC[N-]C.CC[N-]C.[Hf+4],0,1,0,0
2-Ethyl-3-propyl acrolein,341.15,1,CCCC=C(C=O)CC,0,0,0,0
"1,3,5-Trimethylcyclohexane",301.05,1,CC1CC(C)CC(C)C1,0,0,0,0
AllylDimethylSilane-,253.15,1,C=CC[SiH](C)C,1,1,0,0
Bromoethane,253,1,CCBr,0,0,0,0
acetaldoxime,309,1,CC=NO,0,0,0,0
Triphenyl phosphine,453.15,1,c1ccc(P(c2ccccc2)c2ccccc2)cc1,0,0,0,0
"Ethanol, 2-methoxy-, acetate",317.05,1,COCCOC(C)=O,0,0,0,0
Trimethyl[(1-methylethenyl)oxy]silane,272.15,1,C=C(C)O[Si](C)(C)C,1,1,0,0
Dimethyldiethoxysilane,284.15,1,CCO[Si](C)(C)OCC,1,1,0,0
1-methyl-4-prop-1-en-2-ylcyclohexene,319.15,1,CC1=CCC(CC1)C(=C)C,0,0,0,0
"(2-methyl-4-oxo-3-prop-2-ynylcyclopent-2-en-1-yl) 2,2-dimethyl-3-(2-methylprop-1-enyl)cyclopropane-1-carboxylate",412.15,1,CC1=C(C(=O)CC1OC(=O)C2C(C2(C)C)C=C(C)C)CC#C,0,0,0,0
1-nonyne,306,1,C#CCCCCCCC,0,0,0,0
Nitrobenzene,360.95,1,O=[N+]([O-])c1ccccc1,0,0,0,0
Octamethylcyclotetrasiloxane,330.15,1,C[Si]1(C)O[Si](C)(C)O[Si](C)(C)O[Si](C)(C)O1,1,1,0,0
Cyclopropanecarbonitrile,305.95,1,N#CC1CC1,0,0,0,0