compound,flashpoint,pure substance,smiles,is_silicon,is_metallic,is_tin,is_acid
"2-Penten-1-ol, 2-methyl-",333.95,1,CCC=C(C)CO,0,0,0,0
Dibenzofuran,403.15,1,c1ccc2c(c1)oc1ccccc12,0,0,0,0
"1,2-Propanedione, 1-phenyl-",357.15,1,CC(=O)C(=O)c1ccccc1,0,0,0,0
"Phenol, pentafluoro-",345.15,1,Oc1c(F)c(F)c(F)c(F)c1F,0,0,0,0
ethylbenzoate,357,1,C(C)OC(C1=CC=CC=C1)=O,0,0,0,0
"1,2-Oxathiolane, 2,2-dioxide",406.931,1,O=S1(=O)CCCO1,0,0,0,0
1-fluoro-2-iodobenzene,344.15,1,Fc1ccccc1I,0,0,0,0
cumene,304,1,C1(=CC=CC=C1)C(C)C,0,0,0,0
"Phosphonothioic acid, methyl-, O-(4-nitrophenyl) O-propyl ester",445.75,1,CCCOP(C)(=S)Oc1ccc([N+](=O)[O-])cc1,0,0,0,1
Benzo(def)cyclopenta(hi)chrysene,538.45,1,c1cc2ccc3c4cccc5ccc(c6ccc(c1)c2c36)c54,0,0,0,0
"3,5-Pyrazolidinedione, 1,2-diphenyl-4-(2-(phenylsulfinyl)ethyl)-",584.25,1,O=C1C(CCS(=O)c2ccccc2)C(=O)N(c2ccccc2)N1c1ccccc1,0,0,0,0
"Pregn-4-ene-3,11,20-trione, 21-(acetyloxy)-17-hydroxy-",470.45,1,CC(=O)OCC(=O)[C@@]1(O)CC[C@H]2[C@@H]3CCC4=CC(=O)CC[C@]4(C)[C@H]3C(=O)C[C@@]21C,0,0,0,0
"4-Nonanol, 2,6,8-trimethyl-",367.45,1,CC(C)CC(C)CC(O)CC(C)C,0,0,0,0
L-Cysteine,404.65,1,N[C@@H](CS)C(=O)O,0,0,0,0
Ethanedithioamide,379.35,1,NC(=S)C(N)=S,0,0,0,0
2-bromoethyl acetate,344.25,1,CC(=O)OCCBr,0,0,0,0
prop-2-ynylcyclohexane,310.65,1,C#CCC1CCCCC1,0,0,0,0
"Benz(a)anthracene, 4-methyl-",490.95,1,Cc1cccc2c1ccc1cc3ccccc3cc12,0,0,0,0
"Hexane, 1,6-dibromo-",383.95,1,BrCCCCCCBr,0,0,0,0
"Benzenamine, N,N-bis(2-chloroethyl)-4-methyl- (9CI)",430.65,1,Cc1ccc(N(CCCl)CCCl)cc1,0,0,0,0
"Acetic acid, phenyl-, hydrazide (8CI)",447.65,1,NNC(=O)Cc1ccccc1,0,0,0,1
N-Ethyl-L-glutamine,485.25,1,CCN[C@@H](CCC(N)=O)C(=O)O,0,0,0,0
"Benzoin, acetate (8CI)",440.35,1,CC(=O)O.O=C(c1ccccc1)C(O)c1ccccc1,0,0,0,0
2-ethylbutyl prop-2-enoate,325.15,1,CCC(CC)COC(=O)C=C,0,0,0,0
"2,4-dimethylpenta-1,3-diene",283.15,1,C=C(C)C=C(C)C,0,0,0,0
naphthalen-1-ol,426.15,1,C1=CC=C2C(=C1)C=CC=C2O,0,0,0,0
1-bromo-2-chlorobenzene,352.55,1,Clc1ccccc1Br,0,0,0,0
N-phenyl-N-propylacetamide,382.55,1,CCCN(C(C)=O)c1ccccc1,0,0,0,0
2-(propan-2-ylamino)ethanol,343.45,1,CC(C)NCCO,0,0,0,0
cyclohexylmethacrylate,355,1,C1(CCCCC1)OC(C(=C)C)=O,0,0,0,0
"2,4,6-Trifluoropyridine",300.65,1,Fc1cc(F)nc(F)c1,0,0,0,0
1-nitro-2-(2-nitrophenyl)benzene,461.05,1,O=[N+]([O-])c1ccccc1-c1ccccc1[N+](=O)[O-],0,0,0,0
"4H-3,1-Benzoxazin-4-one, 2-phenyl-",436.15,1,O=c1oc(-c2ccccc2)nc2ccccc12,0,0,0,0
N-methyl-N-phenylformamide,399.15,1,CN(C=O)c1ccccc1,0,0,0,0
"2,6-Octadien-1-ol, 3,7-dimethyl-, formate, (2E)-",382.25,1,CC(C)=CCC/C(C)=C/COC=O,0,0,0,0
"Phenol, 2,6-dichloro-4-nitro-",399.45,1,O=[N+]([O-])c1cc(Cl)c(O)c(Cl)c1,0,0,0,0
"Benzaldehyde, 5-bromo-2-hydroxy-",376.55,1,O=Cc1cc(Br)ccc1O,0,0,0,0
propylacetate,283,1,C(CC)OC(C)=O,0,0,0,0
"Phenol, 4,4'-thiobis(2-(1,1-dimethylethyl)-5-methyl-",488.15,1,Cc1cc(O)c(C(C)(C)C)cc1Sc1cc(C(C)(C)C)c(O)cc1C,0,0,0,0
2-Chloropropionitrile,306.45,1,CC(Cl)C#N,0,0,0,0
"Pregn-4-ene-3,20-dione, 17-hydroxy-6-methyl-, (6alpha)- (9CI)",536.15,1,CC(=O)[C@@]1(O)CC[C@H]2[C@@H]3C[C@H](C)C4=CC(=O)CC[C@]4(C)[C@H]3CC[C@@]21C,0,0,0,0
(1-chloro-3-nitrooxypropan-2-yl) nitrate,378.75,1,O=[N+]([O-])OCC(CCl)O[N+](=O)[O-],0,0,0,0
pentanenitrile,305,1,C(CCCC)#N,0,0,0,0
"oxolane-2,5-dione",430.15,1,C1CC(=O)OC1=O,0,0,0,0
5-methyl-2-propan-2-ylhexan-1-ol,353.05,1,CC(C)CCC(CO)C(C)C,0,0,0,0
1-ethyl-3-propylbenzene,342.8,1,CCCc1cccc(CC)c1,0,0,0,0
"1,2,3,4,5-pentafluoro-6-(trifluoromethyl)benzene",293.15,1,Fc1c(F)c(F)c(C(F)(F)F)c(F)c1F,0,0,0,0
"3-ethyl-2,2-dimethylpentane",286,1,C(C)C(C(C)(C)C)CC,0,0,0,0
isopropylcyclopentane,287,1,C(C)(C)C1CCCC1,0,0,0,0
"(2S,5R)-5-methyl-2-propan-2-ylcyclohexan-1-one",345.95,1,CC(C)[C@@H]1CC[C@@H](C)CC1=O,0,0,0,0
2-methyl-1H-pyrrole,320.35,1,Cc1ccc[nH]1,0,0,0,0
"2-Hexenal, (2E)-",308.15,1,CCC/C=C/C=O,0,0,0,0
2-methylpropylcyclopentane,304.65,1,CC(C)CC1CCCC1,0,0,0,0
"Pyridine, 5-ethyl-2-methyl-",339.25,1,CCc1ccc(C)nc1,0,0,0,0
"Benzenamine, 4,4'-(1,2-ethenediyl)bis- (9CI)",535.65,1,Nc1ccc(C=Cc2ccc(N)cc2)cc1,0,0,0,0
azane;1-methyl-4-nitrobenzene;2-nitroaniline;3-nitroaniline,427.15,1,CC1=CC=C(C=C1)[N+](=O)[O-].C1=CC=C(C(=C1)N)[N+](=O)[O-].C1=CC(=CC(=C1)[N+](=O)[O-])N.N,0,0,0,0
decanenitrile,365,1,C(CCCCCCCCC)#N,0,0,0,0
1-bromotetradecane,400.45,1,CCCCCCCCCCCCCCBr,0,0,0,0
1-chloro-4-fluorobenzene,302.15,1,Fc1ccc(Cl)cc1,0,0,0,0
5-methoxy-2-methylaniline,388.878,1,COc1ccc(C)c(N)c1,0,0,0,0
"Phosphonothioic acid, ethyl-, O,O-diethyl ester",345.35,1,CCOP(=S)(CC)OCC,0,0,0,1
"alpha,alpha,alpha,4-Tetrafluoro-o-toluidine",345.35,1,Nc1ccc(F)cc1C(F)(F)F,0,0,0,0
octyl propanoate,365.15,1,CCCCCCCCOC(=O)CC,0,0,0,0
1-ethynyl-4-methylbenzene,322.039,1,C#Cc1ccc(C)cc1,0,0,0,0
10-chloro-5H-phenarsazinine,469.85,1,Cl[As]1c2ccccc2Nc2ccccc21,0,1,0,0
"2,4-dimethylaniline",369.15,1,CC1=CC(=C(C=C1)N)C,0,0,0,0
"Phosphoric acid, dimethyl 3,5,6-trichloro-2-pyridinyl ester",425.45,1,COP(=O)(OC)Oc1nc(Cl)c(Cl)cc1Cl,0,0,0,1
"2,2':6',2''-Terpyridine",455.65,1,c1ccc(-c2cccc(-c3ccccn3)n2)nc1,0,0,0,0
methyl 3-cyanopropanoate,360.65,1,COC(=O)CCC#N,0,0,0,0
1-chloro-2-methylpropan-2-ol,334.15,1,CC(C)(O)CCl,0,0,0,0
"1,1,1,2,2,3,3,4,4,5,5,6,6,7,7,8,8,9,9,10,10,10-docosafluorodecane",328.65,1,FC(F)(F)C(F)(F)C(F)(F)C(F)(F)C(F)(F)C(F)(F)C(F)(F)C(F)(F)C(F)(F)C(F)(F)F,0,0,0,0
"Benzaldehyde, 2-chloro-5-nitro-",402.55,1,O=Cc1cc([N+](=O)[O-])ccc1Cl,0,0,0,0
"10H-Phenothiazine, 10-(3-(4-morpholinyl)propyl)-",521.25,1,c1ccc2c(c1)Sc1ccccc1N2CCCN1CCOCC1,0,0,0,0
2-(dimethylamino)ethyl 2-methylprop-2-enoate,347.15,1,CC(=C)C(=O)OCCN(C)C,0,0,0,0
"Benzoic acid, 2-chloro-5-nitro-, methyl ester",418.45,1,COC(=O)c1cc([N+](=O)[O-])ccc1Cl,0,0,0,1
ethyl 3-nitrobenzoate,410.15,1,CCOC(=O)c1cccc([N+](=O)[O-])c1,0,0,0,0
ZIRCONIUM t-BUTOXIDE,358.15,1,CC(C)(C)[O-].CC(C)(C)[O-].CC(C)(C)[O-].CC(C)(C)[O-].[Zr+4],0,1,0,0
"1-bromo-1,1,2,2,3,3,4,4,5,5,6,6,7,7,8,8,8-heptadecafluorooctane",314.05,1,FC(F)(F)C(F)(F)C(F)(F)C(F)(F)C(F)(F)C(F)(F)C(F)(F)C(F)(F)Br,0,0,0,0
6-methylheptan-2-ol,340.35,1,CC(C)CCCC(C)O,0,0,0,0
1-pentanol,322,1,C(CCCC)O,0,0,0,0
1-chloro-2-(2-chloroethoxymethoxy)ethane,383.15,1,C(CCl)OCOCCCl,0,0,0,0
"7-Oxabicyclo(4.1.0)heptane, 3-(epoxyethyl)-",359.55,1,C1CC2OC2CC1C1CO1,0,0,0,0
ethoxy-(4-nitrophenoxy)-phenyl-sulfanylidene-λ5-phosphane,303.15,1,CCOP(=S)(C1=CC=CC=C1)OC2=CC=C(C=C2)[N+](=O)[O-],0,0,0,0
"methyl 2-[4-(2,4-dichlorophenoxy)phenoxy]propanoate",311.15,1,CC(C(=O)OC)OC1=CC=C(C=C1)OC2=C(C=C(C=C2)Cl)Cl,0,0,0,0
"6H-Benzofuro(3,2-c)(1)benzopyran-6-one, 3,9-dihydroxy-",472.45,1,O=c1oc2cc(O)ccc2c2oc3cc(O)ccc3c12,0,0,0,0
"Quinoline, 6-fluoro-",371.15,1,Fc1ccc2ncccc2c1,0,0,0,0
"Quinoxaline, 2-methyl-",380.15,1,Cc1cnc2ccccc2n1,0,0,0,0
"(1,1'-Biphenyl)-3-amine (9CI)",450.15,1,Nc1cccc(-c2ccccc2)c1,0,0,0,0
"1,2-dichloro-3-nitrobenzene",397.15,1,C1=CC(=C(C(=C1)Cl)Cl)[N+](=O)[O-],0,0,0,0
"1,2-pentanediol",378,1,C(C(CCC)O)O,0,0,0,0
methyl 2-methylbenzoate,355.35,1,COC(=O)c1ccccc1C,0,0,0,0
methyl 2-hydroxybenzoate,369.15,1,COC(=O)C1=CC=CC=C1O,0,0,0,0
1-decanol,381,1,C(CCCCCCCCC)O,0,0,0,0
4-phenoxybutanenitrile,394.65,1,N#CCCCOc1ccccc1,0,0,0,0
"4,5-dimethylhex-1-ene",283.85,1,C=CCC(C)C(C)C,0,0,0,0
TRI-n-BUTYLACETOXYTIN,393.15,1,CCCCC(CCCC)(CCCC)C(=O)O[Sn],0,1,1,0
"2-Propenamide, N,N-dimethyl-",344.85,1,C=CC(=O)N(C)C,0,0,0,0
"Acetic acid, (2,4-dichlorophenoxy)-, 2-methylpropyl ester (9CI)",402.05,1,CC(C)COC(=O)COc1ccc(Cl)cc1Cl,0,0,0,1
"m-Cresol, 6-ethyl-",368.55,1,CCc1ccc(C)cc1O,0,0,0,0
"Benzenesulfonamide, 4-amino-N-(aminothioxomethyl)- (9CI)",503.55,1,NC(=S)NS(=O)(=O)c1ccc(N)cc1,0,0,0,0
"2H-Pyran, 3,4-dihydro-2-methoxy-",289.85,1,COC1CCC=CO1,0,0,0,0
2-methyl-1-butanethiol,292,1,CC(CS)CC,0,0,0,0
1-fluoro-4-(trifluoromethyl)benzene,283.15,1,Fc1ccc(C(F)(F)F)cc1,0,0,0,0
"Benzenemethanol, 3,5-bis(1,1-dimethylethyl)-4-hydroxy-",404.35,1,CC(C)(C)c1cc(CO)cc(C(C)(C)C)c1O,0,0,0,0
"Indan, 1,2:5,6-diepoxyhexahydro-",391.45,1,C1C2CC3OC3C2CC2OC12,0,0,0,0
But-2-yn-1-ol,324.15,1,CC#CCO,0,0,0,0
chloromethyl acetate,282.05,1,CC(=O)OCCl,0,0,0,0
2-phenylacetonitrile,375.15,1,C1=CC=C(C=C1)CC#N,0,0,0,0
"Naphthalene, 1,6-dimethyl- (8CI)(9CI)",383.65,1,Cc1ccc2c(C)cccc2c1,0,0,0,0
1-bromonaphthalen-2-ol,416.65,1,Oc1ccc2ccccc2c1Br,0,0,0,0
"octyl 2-(2,4-dichlorophenoxy)acetate",412.75,1,CCCCCCCCOC(=O)COc1ccc(Cl)cc1Cl,0,0,0,0
1-bromopropan-2-ol,327.15,1,CC(CBr)O,0,0,0,0
"2,5-dibromothiophene",372.55,1,Brc1ccc(Br)s1,0,0,0,0
"Benzamide, 2-methoxy- (9CI)",428.85,1,COc1ccccc1C(N)=O,0,0,0,0
"1,1,1,2,2,3,3,4,4,5,5,6,6,7,7-pentadecafluoroheptane",296.45,1,FC(F)C(F)(F)C(F)(F)C(F)(F)C(F)(F)C(F)(F)C(F)(F)F,0,0,0,0
TETRA-n-BUTOXYGERMANE,385.15,1,CCCCO[Ge](OCCCC)(OCCCC)OCCCC,0,1,0,0
TRIISOPROPYLCHLOROGERMANE,339.15,1,CC(C)[Ge](Cl)(C(C)C)C(C)C,0,1,0,0
"Ethane, 1-bromo-2-chloro-",282.65,1,ClCCBr,0,0,0,0
"2,3-dihydro-1H-inden-1-ol",418.15,1,OC1CCc2ccccc21,0,0,0,0
"Acetamide, N-(2-(6-hydroxy-5-methoxy-1H-indol-3-yl)ethyl)- (9CI)",568.45,1,COc1cc2c(CCNC(C)=O)c[nH]c2cc1O,0,0,0,0
"Silanetetramine, octamethyl-",348.45,1,CN(C)[Si](N(C)C)(N(C)C)N(C)C,1,1,0,0
"N,N,N',N'-tetraethylmethanediamine",315.45,1,CCN(CC)CN(CC)CC,0,0,0,0
"1,3-Benzodioxole-5-carboxaldehyde",376.75,1,O=Cc1ccc2c(c1)OCO2,0,0,0,0
"Acrylic acid, tert-butyl ester (8CI)",304.75,1,C=CC(=O)OC(C)(C)C,0,0,0,1
anthracene,394.15,1,C1=CC=C2C=C3C=CC=CC3=CC2=C1,0,0,0,0
"3-Hexen-1-ol, (3Z)-",317.15,1,CC/C=C\CCO,0,0,0,0
3-methylidene-6-propan-2-ylcyclohexene,317.15,1,C=C1C=CC(C(C)C)CC1,0,0,0,0
2-butylthiophene,316.25,1,CCCCc1cccs1,0,0,0,0
1-[2-[2-hydroxy-3-(propylamino)propoxy]phenyl]-3-phenylpropan-1-one,472.15,1,CCCNCC(COC1=CC=CC=C1C(=O)CCC2=CC=CC=C2)O,0,0,0,0
1-phenylethylpropionate,379,1,C1(=CC=CC=C1)C(C)OC(CC)=O,0,0,0,0
"cyclohexa-2,5-diene-1,4-dione",566.15,1,C1=CC(=O)C=CC1=O,0,0,0,0
"1-Butanamine, 3-methyl-",291.45,1,CC(C)CCN,0,0,0,0
"2,4,5-trimethoxybenzoic acid",407.15,1,COc1cc(OC)c(C(=O)O)cc1OC,0,0,0,1
"Phosphine oxide, tripropyl-",404.45,1,CCCP(=O)(CCC)CCC,0,0,0,0
1-chloro-3-(trichloromethyl)benzene,375.05,1,Clc1cccc(C(Cl)(Cl)Cl)c1,0,0,0,0
"5,6,7,8-tetrahydronaphthalen-2-ol",404.95,1,Oc1ccc2c(c1)CCCC2,0,0,0,0
4-isopropyltoluene,320,1,Cc1ccc(cc1)C(C)C,0,0,0,0
"Oxirane, ((2-methylphenoxy)methyl)-",372.25,1,Cc1ccccc1OCC1CO1,0,0,0,0
"Benzaldehyde, 2-chloro-",360.95,1,O=Cc1ccccc1Cl,0,0,0,0
"Succinimide, N-(p-chlorophenyl)- (8CI)",499.25,1,O=C1CCC(=O)N1c1ccc(Cl)cc1,0,0,0,0
"Benzoic acid, 4-amino-",432.55,1,Nc1ccc(C(=O)O)cc1,0,0,0,1
[(E)-2-bromoethenyl]benzene,352.15,1,C1=CC=C(C=C1)C=CBr,0,0,0,0
"2,3,3-trichloroprop-2-enoyl chloride",305.95,1,O=C(Cl)C(Cl)=C(Cl)Cl,0,0,0,0
"1,5-pentanediol",402,1,C(CCCCO)O,0,0,0,0
hexadec-1-yne,401.127,1,C#CCCCCCCCCCCCCCC,0,0,0,0
2-Nonynoic acid,405.95,1,CCCCCCC#CC(=O)O,0,0,0,1
4-methylhept-1-ene,275,1,CCCC(C)CC=C,0,0,0,0
2-(2-benzoyloxyethoxy)ethyl benzoate,505.15,1,C1=CC=C(C=C1)C(=O)OCCOCCOC(=O)C2=CC=CC=C2,0,0,0,0
"6-chloro-4-N-cyclopropyl-2-N-propan-2-yl-1,3,5-triazine-2,4-diamine",436.15,1,CC(C)NC1=NC(=NC(=N1)NC2CC2)Cl,0,0,0,0
"2,4-dichloro-6-methylpyrimidine",380.15,1,Cc1cc(Cl)nc(Cl)n1,0,0,0,0
"Glycine, N-(phosphonomethyl)-",508.65,1,O=C(O)CNCP(=O)(O)O,0,0,0,0
"1,2-dibromo-3-chloropropane",350.15,1,C(C(CBr)Br)Cl,0,0,0,0
2-Hydroxypropyl bromoacetate,388.65,1,CC(O)COC(=O)CBr,0,0,0,0
Phenyl vinyl sulphone,451.75,1,C=CS(=O)(=O)c1ccccc1,0,0,0,0
2-chloroethoxybenzene,373.75,1,ClCCOc1ccccc1,0,0,0,0
methyl 2-aminobenzoate,377.15,1,COC(=O)C1=CC=CC=C1N,0,0,0,0
(1R)-1-(2-furyl)ethanol,383.15,1,C[C@@H](O)c1ccco1,0,0,0,0
"2-benzofuran-1,3-dione",425.15,1,C1=CC=C2C(=C1)C(=O)OC2=O,0,0,0,0
"Propane, 2-iodo-",315.15,1,CC(C)I,0,0,0,0
3-chloro-4-methylphenol,361.65,1,Cc1ccc(O)cc1Cl,0,0,0,0
"Ethanone, 1-(3-nitrophenyl)-",373.05,1,CC(=O)c1cccc([N+](=O)[O-])c1,0,0,0,0
"Phosphorodichloridic acid, ethyl ester",301.05,1,CCOP(=O)(Cl)Cl,0,0,0,1
"Benzenamine, 4-methyl-2,6-dinitro-N,N-dipropyl- (9CI)",475.55,1,CCCN(CCC)c1c([N+](=O)[O-])cc(C)cc1[N+](=O)[O-],0,0,0,0
"Oxiranecarboxylic acid, 3-phenyl-, ethyl ester",386.15,1,CCOC(=O)C1OC1c1ccccc1,0,0,0,1
propan-2-yl propanoate,292.55,1,CCC(=O)OC(C)C,0,0,0,0
"2-Propenoic acid, 3-(4-aminophenyl)-",455.75,1,Nc1ccc(C=CC(=O)O)cc1,0,0,0,1
2-heptanone,312,1,CC(CCCCC)=O,0,0,0,0
N-ethyl-2-methylaniline,362.05,1,CCNc1ccccc1C,0,0,0,0
"Adenosine, 2',3'-dideoxy-",553.05,1,Nc1ncnc2c1ncn2[C@H]1CC[C@@H](CO)O1,0,0,0,0
"Benzene, 1,1'-methylenebis(4-chloro-",412.95,1,Clc1ccc(Cc2ccc(Cl)cc2)cc1,0,0,0,0
"5-prop-2-enyl-1,3-benzodioxole",371.15,1,C=CCC1=CC2=C(C=C1)OCO2,0,0,0,0
chromen-2-one,424.15,1,C1=CC=C2C(=C1)C=CC(=O)O2,0,0,0,0
"ethyl 2,2-dichloroacetate",328.75,1,CCOC(=O)C(Cl)Cl,0,0,0,0
propyl hexanoate,324.85,1,CCCCCC(=O)OCCC,0,0,0,0
1-butylpyrrolidine,309.25,1,CCCCN1CCCC1,0,0,0,0
"Acetamide, N-(4-bromophenyl)-2-fluoro- (9CI)",447.45,1,O=C(CF)Nc1ccc(Br)cc1,0,0,0,0
"Phosphonothioic acid, phenyl-, O-ethyl O-(4-nitrophenyl) ester",489.75,1,CCOP(=S)(Oc1ccc([N+](=O)[O-])cc1)c1ccccc1,0,0,0,1
2-(bromomethyl)oxirane,329.15,1,C1C(O1)CBr,0,0,0,0
"Hexane, 1-fluoro-",300.35,1,CCCCCCF,0,0,0,0
"N,N-dimethylpropanamide",338.95,1,CCC(=O)N(C)C,0,0,0,0
2-isopropoxyethanol,316,1,C(C)(C)OCCO,0,0,0,0
n-TRIACONTANE,475,1,CCCCCCCCCCCCCCCCCCCCCCCCCCCCCC,0,0,0,0
"2-ethylhexyl 2-(2,4-dichlorophenoxy)acetate",444.15,1,CCCCC(CC)COC(=O)COC1=C(C=C(C=C1)Cl)Cl,0,0,0,0
nitrobenzene,361.15,1,C1=CC=C(C=C1)[N+](=O)[O-],0,0,0,0
"1,4-Benzenediol, 2-(1,1-dimethylethyl)-",411.85,1,CC(C)(C)c1cc(O)ccc1O,0,0,0,0
"3-Buten-2-one, 4-(2,6,6-trimethyl-2-cyclohexen-1-yl)-, (3E)-",388.15,1,CC(=O)/C=C/C1C(C)=CCCC1(C)C,0,0,0,0
"2-chloro-1,3-butadiene",253,1,ClC(=C)C=C,0,0,0,0
ethyl 3-oxo-5-phenylpentanoate,405.45,1,CCOC(=O)CC(=O)CCc1ccccc1,0,0,0,0
2-Heptyn-1-ol,351.15,1,CCCCC#CCO,0,0,0,0
1-chloro-4-propan-2-ylbenzene,587.15,1,CC(C)c1ccc(Cl)cc1,0,0,0,0
"1,3-Dimethyl-4-chlorobenzene",335.25,1,Cc1ccc(Cl)c(C)c1,0,0,0,0
"diethyl cyclopropane-1,1-dicarboxylate",359.85,1,CCOC(=O)C1(C(=O)OCC)CC1,0,0,0,0
triphenylmethanol,441.85,1,OC(c1ccccc1)(c1ccccc1)c1ccccc1,0,0,0,0
"Heptane, 2,2,4,6,6-pentamethyl-",331.55,1,CC(CC(C)(C)C)CC(C)(C)C,0,0,0,0
2-(dimethylamino)ethyl prop-2-enoate,302.15,1,CN(C)CCOC(=O)C=C,0,0,0,0
"2,2-dimethylpentan-3-one",295.55,1,CCC(=O)C(C)(C)C,0,0,0,0
"Phosphorothioic acid, O-(4-aminophenyl) O,O-diethyl ester",436.35,1,CCOP(=S)(OCC)Oc1ccc(N)cc1,0,0,0,1
"p-Menth-8-yl hydroperoxide (7CI,8CI)",326.15,1,CC1CCC(C(C)(C)OO)CC1,0,0,0,0
octyl 8-(3-octyloxiran-2-yl)octanoate,490.15,1,CCCCCCCCC1C(O1)CCCCCCCC(=O)OCCCCCCCC,0,0,0,0
4-Chloroheptane,312.4,1,CCCC(Cl)CCC,0,0,0,0
"Isocyanic acid, p-nitrophenyl ester (8CI)",339.15,1,O=C=Nc1ccc([N+](=O)[O-])cc1,0,0,0,1
"Benzaldehyde, p-amino- (8CI)",395.141,1,Nc1ccc(C=O)cc1,0,0,0,0
"Phenetole, p-methyl- (8CI)",343.15,1,CCOc1ccc(C)cc1,0,0,0,0
cis-2-DODECENE,351,1,C/C=C\CCCCCCCCC,0,0,0,0
"Benzeneacetic acid, 2-chloro- (9CI)",404.85,1,O=C(O)Cc1ccccc1Cl,0,0,0,1
ethyl 4-hydroxy-3-methoxybenzoate,395.55,1,CCOC(=O)c1ccc(O)c(OC)c1,0,0,0,0
"Phenol, 4-bromo-2,6-dimethyl-",379.95,1,Cc1cc(Br)cc(C)c1O,0,0,0,0
"Phenol, p-phenoxy- (8CI)",414.55,1,Oc1ccc(Oc2ccccc2)cc1,0,0,0,0
cyclopentanethiol,298,1,C1(CCCC1)S,0,0,0,0
1-(propoxymethoxy)propane,298.55,1,CCCOCOCCC,0,0,0,0
2-chlorobenzonitrile,373.95,1,N#Cc1ccccc1Cl,0,0,0,0
"Benzaldehyde, 4-nitro-, oxime (9CI)",410.95,1,O=[N+]([O-])c1ccc(C=NO)cc1,0,0,0,0
"Benzeneethanamine, beta-methyl- (9CI)",357.75,1,CC(CN)c1ccccc1,0,0,0,0
Benzothiazole,369.75,1,c1ccc2scnc2c1,0,0,0,0
"1,3-difluoro-5-nitrobenzene",347.05,1,O=[N+]([O-])c1cc(F)cc(F)c1,0,0,0,0
"Morpholine, 4-(2-aminoethyl)-",448.15,1,NCCN1CCOCC1,0,0,0,0
3-bromopentane,292,1,BrC(CC)CC,0,0,0,0
"Benzenesulfonyl isocyanate, 4-methyl-",401.65,1,Cc1ccc(S(=O)(=O)N=C=O)cc1,0,0,0,0
"1,3-diisopropylbenzene",349,1,C(C)(C)C1=CC(=CC=C1)C(C)C,0,0,0,0
1-bromooctane,351,1,BrCCCCCCCC,0,0,0,0
"2,3,4-trimethylpent-2-ene",275,1,CC(C)C(=C(C)C)C,0,0,0,0
"Pregna-1,4-diene-3,20-dione, 11beta,17,21-trihydroxy- (8CI)",586.15,1,C[C@]12C[C@H](O)[C@H]3[C@@H](CCC4=CC(=O)C=C[C@@]43C)[C@@H]1CC[C@]2(O)C(=O)CO,0,0,0,0
"2,4,5-trichlorophenol",406.15,1,C1=C(C(=CC(=C1Cl)Cl)Cl)O,0,0,0,0
ethyl N-ethylcarbamate,348.75,1,CCNC(=O)OCC,0,0,0,0
"Phosphorothioic acid, O-ethyl O-methyl O-(4-nitrophenyl) ester (9CI)",438.05,1,CCOP(=S)(OC)Oc1ccc([N+](=O)[O-])cc1,0,0,0,1
"Phenol, 4-chloro-3-nitro-",413.65,1,O=[N+]([O-])c1cc(O)ccc1Cl,0,0,0,0
"Propanedioic acid, (phenylmethyl)-, diethyl ester",427.85,1,CCOC(=O)C(Cc1ccccc1)C(=O)OCC,0,0,0,1
N-methyl-N-phenylcarbamoyl chloride,396.25,1,CN(C(=O)Cl)c1ccccc1,0,0,0,0
"2-methyl-1,3-thiazole",302.05,1,Cc1nccs1,0,0,0,0
2-Ethoxycyclohexan-1-ol,353.55,1,CCOC1CCCCC1O,0,0,0,0
"Phosphorodithioic acid, O,O-diethyl S-((ethylsulfinyl)ethyl) ester",474.15,1,CCOP(=S)(OCC)SCCS(=O)CC,0,0,0,1
"Ethanol, 2,2'-(butylimino)bis-",399.85,1,CCCCN(CCO)CCO,0,0,0,0
"Phosphonodithioic acid, methyl-, O-phenyl S-propyl ester",422.65,1,CCCSP(C)(=S)Oc1ccccc1,0,0,0,1
isopentyl propanoate,321,1,CCC(=O)OCCC(C)C,0,0,0,0
"Phosphoric acid, 2-chloro-1-(2,5-dichlorophenyl)ethenyl dimethyl ester",534.45,1,COP(=O)(OC)OC(=CCl)c1cc(Cl)ccc1Cl,0,0,0,1
"Benzophenone, 2',5-dichloro-2-methylamino-",499.55,1,CNc1ccc(Cl)cc1C(=O)c1ccccc1Cl,0,0,0,0
"2-Buten-1-ol, 3-methyl-, benzoate",398.25,1,CC(C)=CCOC(=O)c1ccccc1,0,0,0,0
3-ethylpyridine,322.05,1,CCc1cccnc1,0,0,0,0
"N,N-diphenylaniline",453.15,1,C1=CC=C(C=C1)N(C2=CC=CC=C2)C3=CC=CC=C3,0,0,0,0
cyclohexyl propanoate,340.95,1,CCC(=O)OC1CCCCC1,0,0,0,0
"Hexanedioic acid, bis(7-oxabicyclo(4.1.0)hept-3-ylmethyl) ester",479.25,1,O=C(CCCCC(=O)OCC1CCC2OC2C1)OCC1CCC2OC2C1,0,0,0,1
"3,7-dimethyl-6-octenal",351,1,CC(CC=O)CCC=C(C)C,0,0,0,0
"N,N-diethyl-3-methylbenzamide",428.15,1,CCN(CC)C(=O)C1=CC(=CC=C1)C,0,0,0,0
"Benzaldehyde, 3-hydroxy-",371.75,1,O=Cc1cccc(O)c1,0,0,0,0
"Phenol, 2-amino-6-chloro-4-nitro-",443.95,1,Nc1cc([N+](=O)[O-])cc(Cl)c1O,0,0,0,0
9H-Fluoren-3-amine (9CI),466.45,1,Nc1ccc2c(c1)-c1ccccc1C2,0,0,0,0
(4-methoxyphenyl)-phenyldiazene,423.95,1,COc1ccc(N=Nc2ccccc2)cc1,0,0,0,0
"Ethanol, 2,2'-(1,2-ethanediylbis(oxy))bis-, dinitrate",420.05,1,O=[N+]([O-])O.O=[N+]([O-])O.OCCOCCOCCO,0,0,0,0
4-fluoropyridine,295.95,1,Fc1ccncc1,0,0,0,0
"Butane, 1-iodo-3-methyl-",319.15,1,CC(C)CCI,0,0,0,0
1-benzylpyrrole,376.35,1,c1ccc(Cn2cccc2)cc1,0,0,0,0
1-methylbenzotriazole,390.55,1,Cn1nnc2ccccc21,0,0,0,0
benzylbenzene,403.15,1,C1=CC=C(C=C1)CC2=CC=CC=C2,0,0,0,0
"Acetophenone, 2'-hydroxy- (8CI)",360.65,1,CC(=O)c1ccccc1O,0,0,0,0
"Naphthalene, 2-methyl-1-nitro-",423.55,1,Cc1ccc2ccccc2c1[N+](=O)[O-],0,0,0,0
"2H-1-Benzopyran-2-one, octahydro-",382.15,1,O=C1CCC2CCCCC2O1,0,0,0,0
"Methanesulfonic acid, butyl ester",375.15,1,CCCCOS(C)(=O)=O,0,0,0,1
pyrrole,306,1,N1C=CC=C1,0,0,0,0
"1,1,2-tribromoethane",340.75,1,BrCC(Br)Br,0,0,0,0
"(4S,4aS,8aR)-4,8a-dimethyl-1,2,3,4,5,6,7,8-octahydronaphthalen-4a-ol",377.35,1,C[C@H]1CCC[C@@]2(C)CCCC[C@]12O,0,0,0,0
"Phosphorodithioic acid, O,O,S-triethyl ester",374.65,1,CCOP(=S)(OCC)SCC,0,0,0,1
"methyl 2,2-dimethylpropanoate",279.85,1,COC(=O)C(C)(C)C,0,0,0,0
"(4E)-hexa-1,4-diene",248,1,C=CC/C=C/C,0,0,0,0
2-chloroacetaldehyde,361.15,1,C(C=O)Cl,0,0,0,0
"1,3-Propanediol, 2-bromo-2-nitro-",443.45,1,O=[N+]([O-])C(Br)(CO)CO,0,0,0,0
4-methyl-1-pentene,241,1,CC(CC=C)C,0,0,0,0
"9,10-Anthracenedione, 1,3-dihydroxy-2-(hydroxymethyl)- (9CI)",594.75,1,O=C1c2ccccc2C(=O)c2c1cc(O)c(CO)c2O,0,0,0,0
"2H-Pyran, 2-(bromomethyl)tetrahydro-",338.15,1,BrCC1CCCCO1,0,0,0,0
"Benzenamine, 2-methoxy-5-methyl-",384.15,1,COc1ccc(C)cc1N,0,0,0,0
"Benzaldehyde, 2,5-dimethoxy-",393.794,1,COc1ccc(OC)c(C=O)c1,0,0,0,0
3-ethylpent-2-ene,267,1,CCC(=CC)CC,0,0,0,0
1-bromo-4-ethenylbenzene,359.85,1,C=Cc1ccc(Br)cc1,0,0,0,0
"Acrylic acid, 3-(dimethylamino)-, ethyl ester, (E)-",342.05,1,CCOC(=O)/C=C/N(C)C,0,0,0,1
"L-Glutamic acid, N-(1-oxooctadecyl)- (9CI)",589.95,1,CCCCCCCCCCCCCCCCCC(=O)N[C@@H](CCC(=O)O)C(=O)O,0,0,0,1
2-Chlorodecane,350.2,1,CCCCCCCCC(C)Cl,0,0,0,0
4-Bromochalcone,352.75,1,O=C(C=Cc1ccc(Br)cc1)c1ccccc1,0,0,0,0
"1,2,3,4-tetrahydroquinoline",373.75,1,c1ccc2c(c1)CCCN2,0,0,0,0
oxolan-2-ylmethyl acetate,357.55,1,CC(=O)OCC1CCCO1,0,0,0,0
hexylformate,317,1,C(CCCCC)OC=O,0,0,0,0
3-aminopropan-1-ol,352.15,1,C(CN)CO,0,0,0,0
LINOLEIC acid,467,1,CCCCC/C=C\C/C=C\CCCCCCCC(=O)O,0,0,0,1
"1-Propanol, 1,1-dimethyl-3-phenyl- (8CI)",379.85,1,CC(C)(O)CCc1ccccc1,0,0,0,0
"Isocyanic acid, o-tolyl ester (7CI,8CI)",365.15,1,Cc1ccccc1N=C=O,0,0,0,1