compound,flashpoint,pure substance,smiles,is_silicon,is_metallic,is_tin,is_acid
N-butyl-N-methylnitrous amide,305.15,1,CCCCN(C)N=O,0,0,0,0
TITANIUM n-PROPOXIDE,318.15,1,CCC[O-].CCC[O-].CCC[O-].CCC[O-].[Ti+4],0,1,0,0
"3-Pentanol, 2,4-dimethyl-",310.15,1,CC(C)C(O)C(C)C,0,0,0,0
TANTALUM(V) n-BUTOXIDE,339.15,1,CCCC[O-].CCCC[O-].CCCC[O-].CCCC[O-].CCCC[O-].[Ta+5],0,1,0,0
"1,7-dimethylnaphthalene",381.85,1,Cc1ccc2cccc(C)c2c1,0,0,0,0
3-ethylpent-1-ene,256,1,CCC(CC)C=C,0,0,0,0
"Phenol, 2-nitro-",381.15,1,O=[N+]([O-])c1ccccc1O,0,0,0,0
3-methylcyclopentanone,307,1,CC1CC(CC1)=O,0,0,0,0
"2,4,5-trimethylpyridine",331.05,1,Cc1cc(C)c(C)cn1,0,0,0,0
tetrabromomethane,338.563,1,BrC(Br)(Br)Br,0,0,0,0
"2-Ethyl-2,5,6,7,8-pentahydroxy-1,4-naphthoquinone",360.55,1,CCC1(O)CC(=O)c2c(O)c(O)c(O)c(O)c2C1=O,0,0,0,0
"Naphthalene, 1-(chloromethyl)-",403.05,1,ClCc1cccc2ccccc12,0,0,0,0
"2-Pyrrolidinone, 1-(2-hydroxyethyl)-",373.15,1,O=C1CCCN1CCO,0,0,0,0
cyclopropanecarbonitrile,305,1,C1(CC1)C#N,0,0,0,0
"2,2,4-trimethylpentan-3-ol",323.15,1,CC(C)C(O)C(C)(C)C,0,0,0,0
"Butanoic acid, 3-methyl-, 2-phenylethyl ester",381.15,1,CC(C)CC(=O)OCCc1ccccc1,0,0,0,1
"Ethanamine, 2-(4-(2-chloro-1,2-diphenylethenyl)phenoxy)-N,N-diethyl-",534.75,1,CCN(CC)CCOc1ccc(C(=C(Cl)c2ccccc2)c2ccccc2)cc1,0,0,0,0
bicyclo[3.3.1]nonane,310.45,1,C1CC2CCCC(C1)C2,0,0,0,0
Cyclopent-2-en-1-ol,328.25,1,OC1C=CCC1,0,0,0,0
1-Pentadecanamine,402.45,1,CCCCCCCCCCCCCCCN,0,0,0,0
TETRAISOPROPOXYGERMANE,341.15,1,CC(C)O[Ge](OC(C)C)(OC(C)C)OC(C)C,0,1,0,0
n-TRIDECANOIC acid,438,1,CCCCCCCCCCCCC(=O)O,0,0,0,1
ethyl 3-phenylprop-2-ynoate,386.15,1,CCOC(=O)C#CC1=CC=CC=C1,0,0,0,0
"Methanone, (3,5-dibromo-4-hydroxyphenyl)(2-ethyl-3-benzofuranyl)-",537.85,1,CCc1oc2ccccc2c1C(=O)c1cc(Br)c(O)c(Br)c1,0,0,0,0
2-methylcyclohexanone,319,1,CC1C(CCCC1)=O,0,0,0,0
"Phenol, 4-((2,4-dinitrophenyl)amino)-",495.35,1,O=[N+]([O-])c1ccc(Nc2ccc(O)cc2)c([N+](=O)[O-])c1,0,0,0,0
"2H-1,2-Oxazine, 3,6-dihydro-2-nitroso-",303.45,1,O=NN1CC=CCO1,0,0,0,0
"2,3,5,6-tetramethylphenol",384.75,1,Cc1cc(C)c(C)c(O)c1C,0,0,0,0
3-methyl-2-butanol,300,1,CC(C(C)O)C,0,0,0,0
"9H-Pyrido(3,4-b)indole",455.25,1,c1ccc2c(c1)[nH]c1cnccc12,0,0,0,0
2-bromobutanoyl chloride,321.95,1,CCC(Br)C(=O)Cl,0,0,0,0
1-chloro-2-methoxybenzene,349.15,1,COc1ccccc1Cl,0,0,0,0
N-(3-methylphenyl)-1-phenylmethanimine,421.55,1,Cc1cccc(N=Cc2ccccc2)c1,0,0,0,0
5-methylhexan-3-one,304.15,1,CCC(=O)CC(C)C,0,0,0,0
Vinyltriethylsilane,318,1,C(=C)[Si](CC)(CC)CC,1,1,0,0
"Benzenamine, 2,4-dinitro-",497.15,1,Nc1ccc([N+](=O)[O-])cc1[N+](=O)[O-],0,0,0,0
"2,5-Hexadienoic acid, 3-methoxy-5-methyl-4-oxo-",386.65,1,C=C(C)C(=O)C(=CC(=O)O)OC,0,0,0,1
"Propanamide, 3-((4-bromophenyl)amino)-N,N-dimethyl- (9CI)",467.75,1,CN(C)C(=O)CCNc1ccc(Br)cc1,0,0,0,0
4-methylbenzenesulfonyl chloride,401.15,1,CC1=CC=C(C=C1)S(=O)(=O)Cl,0,0,0,0
"Toluene, m-fluoro- (8CI)",282.55,1,Cc1cccc(F)c1,0,0,0,0
"Piperazine, 1,4-bis(3-bromo-1-oxopropyl)-",521.55,1,O=C(CCBr)N1CCN(C(=O)CCBr)CC1,0,0,0,0
"Toluene, alpha,alpha,alpha,3,4-pentachloro- (8CI)",396.65,1,Clc1ccc(C(Cl)(Cl)Cl)cc1Cl,0,0,0,0
3-ACETOXYPROPYLMETHYLDICHLOROSILANE,358.15,1,CC(=O)OCCC[Si](C)(Cl)Cl,1,1,0,0
"1,7-Dioxacycloheptadecan-17-one",447.55,1,O=C1CCCCCCCCCOCCCCCO1,0,0,0,0
"InChI=1S/C4H4O2/c5-4-2-1-3-6-4/h1-2H,3H2",374.15,1,C1C=CC(=O)O1,0,0,0,0
"2,6-DINITROTOLUENE",417,1,Cc1c([N+](=O)[O-])cccc1[N+](=O)[O-],0,0,0,0
cis-4-methyl-2-pentene,240,1,CC(\C=C/C)C,0,0,0,0
"2,3-dimethylhexane",278,1,CC(C)C(CCC)C,0,0,0,0
"2,6-dimethylheptan-4-ol",347.15,1,CC(C)CC(CC(C)C)O,0,0,0,0
"8-Methoxy-3,4-methylenedioxy-10-nitrophenanthrene-1-carboxylic acid",599.15,1,COc1cccc2c1cc([N+](=O)[O-])c1c(C(=O)O)cc3c(c12)OCO3,0,0,0,1
"1H-Pyrazole, 3-chloro-5-methyl-4-nitro-",448.45,1,Cc1[nH]nc(Cl)c1[N+](=O)[O-],0,0,0,0
"Propanenitrile, 3,3'-thiobis-",432.75,1,N#CCCSCCC#N,0,0,0,0
"6-Octen-1-ol, 3,7-dimethyl-, acetate",361.35,1,CC(=O)OCCC(C)CCC=C(C)C,0,0,0,0
CALCIUM 2-ETHYLHEXANOATE,400.15,1,CCCCC(CC)C(=O)[O-].CCCCC(CC)C(=O)[O-].[Ca+2],0,1,0,0
ethyl trifluoromethanesulfonate,308.75,1,CCOS(=O)(=O)C(F)(F)F,0,0,0,0
"Butanamide, N-(4-methoxyphenyl)-3-oxo-",474.85,1,COc1ccc(NC(=O)CC(C)=O)cc1,0,0,0,0
"Propanenitrile, 3-(phenylamino)-",426.05,1,N#CCCNc1ccccc1,0,0,0,0
"Phosphorous acid, tri-2-propenyl ester",359.85,1,C=CCOP(OCC=C)OCC=C,0,0,0,1
"1,2,3,5-tetrafluorobenzene",277.55,1,Fc1cc(F)c(F)c(F)c1,0,0,0,0
TRICYCLOHEXYLTIN HYDRIDE,378.15,1,C1CCC([SnH](C2CCCCC2)C2CCCCC2)CC1,0,1,1,0
2-tert-butyl-4-(5-tert-butyl-4-hydroxy-2-methylphenyl)sulfanyl-5-methylphenol,489.15,1,CC1=CC(=C(C=C1SC2=CC(=C(C=C2C)O)C(C)(C)C)C(C)(C)C)O,0,0,0,0
"4-chloro-1,2-dimethylbenzene",340.15,1,Cc1ccc(Cl)cc1C,0,0,0,0
tris(2-chloroethyl) phosphite,411.15,1,C(CCl)OP(OCCCl)OCCCl,0,0,0,0
benzylcyanide,374,1,C(C1=CC=CC=C1)C#N,0,0,0,0
"Acetamide, N-(4-((4-aminophenyl)sulfonyl)phenyl)- (9CI)",583.45,1,CC(=O)Nc1ccc(S(=O)(=O)c2ccc(N)cc2)cc1,0,0,0,0
"Pyrazine, 2,6-dimethyl-",325.95,1,Cc1cncc(C)n1,0,0,0,0
"9H-Xanthen-9-one, 1,5,8-trihydroxy-3-methoxy- (9CI)",501.15,1,COc1cc(O)c2c(=O)c3c(O)ccc(O)c3oc2c1,0,0,0,0
"2,3,3-trichloroprop-2-enoic acid",397.55,1,O=C(O)C(Cl)=C(Cl)Cl,0,0,0,1
"Pyrrole, 1-(o-(2-(diethylamino)ethoxy)phenyl)-2-methyl-5-phenyl-",528.05,1,CCN(CC)CCOc1ccccc1-n1c(C)ccc1-c1ccccc1,0,0,0,0
"Salicylic acid, 4-amino-, phenyl ester (8CI)",472.75,1,Nc1ccc(C(=O)Oc2ccccc2)c(O)c1,0,0,0,1
"Acetamide, N-(2-methoxy-4-nitrophenyl)-",474.55,1,COc1cc([N+](=O)[O-])ccc1NC(C)=O,0,0,0,0
3-bromo-3-methylpentane,306.25,1,CCC(C)(Br)CC,0,0,0,0
Benzo(j)fluoranthene,501.75,1,c1ccc2c3c(ccc2c1)-c1cccc2cccc-3c12,0,0,0,0
"Pyridine, 2,6-difluoro-",307.05,1,Fc1cccc(F)n1,0,0,0,0
"Butanoic acid, 2-bromo-3-methyl-, ethyl ester",345.65,1,CCOC(=O)C(Br)C(C)C,0,0,0,1
"Benzenemethanol, 4-hydroxy-3-methoxy-",416.35,1,COc1cc(CO)ccc1O,0,0,0,0
"1-sec -butyl-2,4-dimethylbenzene",354.5,1,CCC(C)c1ccc(C)cc1C,0,0,0,0
1-bromo-3-methoxybenzene,366.45,1,COc1cccc(Br)c1,0,0,0,0
2-methyl-2-butanol,294,1,CC(C)(CC)O,0,0,0,0
"Pyrido(3,4-d)pyridazine",467.05,1,c1cc2cnncc2cn1,0,0,0,0
"2-Chloro-2,5-dimethylhexane",316.7,1,CC(C)CCC(C)(C)Cl,0,0,0,0
2-ethylaniline,358,1,C(C)C1=C(N)C=CC=C1,0,0,0,0
2-methylbutanoyl chloride,298.65,1,CCC(C)C(=O)Cl,0,0,0,0
2-bromo-1-chloropropane,300.65,1,CC(Br)CCl,0,0,0,0
"1,1,1,2-tetrachloro-2-fluoroethane",299.55,1,FC(Cl)C(Cl)(Cl)Cl,0,0,0,0
1-(cyclohexen-1-yl)ethanone,346.35,1,CC(=O)C1=CCCCC1,0,0,0,0
ETHYLBENZENE HYDROPEROXIDE,414,1,CCc1ccccc1.[O-]O,0,0,0,0
"2,6-Piperidinedione, 3-ethyl-3-phenyl-",434.95,1,CCC1(c2ccccc2)CCC(=O)NC1=O,0,0,0,0
"4-bromo-3-chloro-3,4,4-trifluorobut-1-ene",294.25,1,C=CC(F)(Cl)C(F)(F)Br,0,0,0,0
"1,3-dibutylbenzene",382.4,1,CCCCc1cccc(CCCC)c1,0,0,0,0
1-Chloroundecane,367.6,1,CCCCCCCCCCCCl,0,0,0,0
"cis-1,3-dimethylcyclohexane",279,1,C[C@@H]1CCC[C@H](C)C1,0,0,0,0
"ethyl 4-[cyclopropyl(hydroxy)methylidene]-3,5-dioxocyclohexane-1-carboxylate",406.15,1,CCOC(=O)C1CC(=O)C(=C(C2CC2)O)C(=O)C1,0,0,0,0
"4(3H)-Quinazolinone, 2-methyl-3-(2-methylphenyl)-",473.05,1,Cc1ccccc1-n1c(C)nc2ccccc2c1=O,0,0,0,0
"6,6-Dimethyl-2-(hydroxymethyl)bicyclo[3.1.1]hept-2-ene",362.55,1,CC1(C)C2CC=C(CO)C1C2,0,0,0,0
"Acetamide, N-(aminothioxomethyl)-",353.15,1,CC(=O)NC(N)=S,0,0,0,0
"Phenol, 2,3-dinitro-",424.35,1,O=[N+]([O-])c1cccc(O)c1[N+](=O)[O-],0,0,0,0
"3,4-dimethyloctane",359.65,1,CCCCC(C)C(C)CC,0,0,0,0
"Benzene, (1,1,2,2-tetrafluoroethoxy)-",318.95,1,FC(F)C(F)(F)Oc1ccccc1,0,0,0,0
"1H-Imidazole-4-carboxamide, 5-(3,3-dimethyl-1-triazenyl)-",502.85,1,CN(C)N=Nc1[nH]cnc1C(N)=O,0,0,0,0
"Hydrocinnamic acid, alpha-ethyl-3-hydroxy-2,4,6-triiodo-",504.55,1,CCC(Cc1c(I)cc(I)c(O)c1I)C(=O)O,0,0,0,1
7-oxabicyclo[4.1.0]heptane,354.15,1,C1CCC2C(C1)O2,0,0,0,0
"Benzenemethanol, 3-hydroxy-alpha-((methylamino)methyl)-, (R)- (9CI)",436.55,1,CNC[C@H](O)c1cccc(O)c1,0,0,0,0
"Phenol, 4-amino-",462.15,1,Nc1ccc(O)cc1,0,0,0,0
2-methylprop-2-enal,275.15,1,CC(=C)C=O,0,0,0,0
"1,2-diethoxybenzene",346.95,1,CCOc1ccccc1OCC,0,0,0,0
4-propylpiperidine,321.55,1,CCCC1CCNCC1,0,0,0,0
ACETOXYACETIC acid,440,1,CC(=O)OCC(=O)O,0,0,0,1
"Cyclohexanecarboxylic acid, ethyl ester",341.65,1,CCOC(=O)C1CCCCC1,0,0,0,1
"2,2,3-trimethylhexan-3-ol",331.05,1,CCCC(C)(O)C(C)(C)C,0,0,0,0
"2,4-Mesitylenediamine (7CI,8CI)",431.55,1,Cc1cc(C)c(N)c(C)c1N,0,0,0,0
dotriacontane,597.05,1,CCCCCCCCCCCCCCCCCCCCCCCCCCCCCCCC,0,0,0,0
"Benzoic acid, 4-hydroxy-, butyl ester",402.35,1,CCCCOC(=O)c1ccc(O)cc1,0,0,0,1
"2-Benzofurancarboxamide, 5-(1-piperidinylmethyl)- (9CI)",495.35,1,NC(=O)c1cc2cc(CN3CCCCC3)ccc2o1,0,0,0,0
"Isocyanic acid, 4-methyl-m-phenylene ester (8CI)",383.65,1,Cc1ccc(N=C=O)cc1N=C=O,0,0,0,1
"2,6-ditert-butylpyridine",345.15,1,CC(C)(C)c1cccc(C(C)(C)C)n1,0,0,0,0
undecan-6-ol,367.15,1,CCCCCC(O)CCCCC,0,0,0,0
2-Acridinamine (9CI),514.35,1,Nc1ccc2nc3ccccc3cc2c1,0,0,0,0
"Benzoic acid, 4-hydroxy-3-methoxy-",422.55,1,COc1cc(C(=O)O)ccc1O,0,0,0,1
"6-Octen-1-ol, 3,7-dimethyl-, propionate (7CI,8CI)",363.95,1,CCC(=O)OCCC(C)CCC=C(C)C,0,0,0,0
"1,2-Benzenediamine, 4-(4-aminophenoxy)- (9CI)",519.65,1,Nc1ccc(Oc2ccc(N)c(N)c2)cc1,0,0,0,0
1-methylisoquinoline,379.85,1,Cc1nccc2ccccc12,0,0,0,0
4-Pyridinecarboxamide,429.15,1,NC(=O)c1ccncc1,0,0,0,0
"Propane, 1,3-dichloro-2,2-bis(chloromethyl)-",367.95,1,ClCC(CCl)(CCl)CCl,0,0,0,0
"Acetic acid, phenoxy-",388.25,1,O=C(O)COc1ccccc1,0,0,0,1
"2-Propenoic acid, decyl ester",367.45,1,C=CC(=O)OCCCCCCCCCC,0,0,0,1
"Phenol, o-mercapto- (6CI,7CI,8CI)",362.25,1,Oc1ccccc1S,0,0,0,0
octan-4-ol,344.25,1,CCCCC(O)CCC,0,0,0,0
4-nitrophenol,465.15,1,C1=CC(=CC=C1[N+](=O)[O-])O,0,0,0,0
ethyl 2-nitrobenzoate,399.25,1,CCOC(=O)c1ccccc1[N+](=O)[O-],0,0,0,0
"Benzenemethanol, 4-fluoro- (9CI)",363.15,1,OCc1ccc(F)cc1,0,0,0,0
dibutylsulfide,333,1,C(CCC)SCCCC,0,0,0,0
alpha-Methylbenzyl bromide,353.35,1,CC(Br)c1ccccc1,0,0,0,0
"Bicyclo(2.2.1)hept-5-ene-2,3-dicarboxylic acid, dimethyl ester (9CI)",402.55,1,COC(=O)C1C2C=CC(C2)C1C(=O)OC,0,0,0,1
1-bromo-4-(trifluoromethyl)benzene,322.039,1,FC(F)(F)c1ccc(Br)cc1,0,0,0,0
"1,4-diphenylbenzene",480,1,c1ccc(cc1)c1ccc(cc1)c1ccccc1,0,0,0,0
"1H-Purin-6-amine, N-(phenylmethyl)-",547.15,1,c1ccc(CNc2[nH]cnc3ncnc2-3)cc1,0,0,0,0
"methyl (6Z,9E,12Z)-octadeca-6,9,12-trienoate",335,1,CCCCC/C=C\C/C=C/C/C=C\CCCCC(=O)OC,0,0,0,0
5-Hydroxyquinoline,474.85,1,Oc1cccc2ncccc12,0,0,0,0
diethylsilicon,244.25,1,CC[Si]CC,1,1,0,0
1-butanethiol,275,1,C(CCC)S,0,0,0,0
dodecyl butanoate,433,1,CCCCCCCCCCCCOC(=O)CCC,0,0,0,0
tert-Butyl propyl ketone,307.55,1,CCCC(=O)C(C)(C)C,0,0,0,0
"2-bromo-1,3-dichlorobenzene",384.45,1,Clc1cccc(Cl)c1Br,0,0,0,0
1-chlorooctane,331,1,ClCCCCCCCC,0,0,0,0
"3,3-dimethyl-2-oxobutanoic acid",351.55,1,CC(C)(C)C(=O)C(=O)O,0,0,0,1
methylheptanoate,325,1,COC(CCCCCC)=O,0,0,0,0
"methyl 2,2-dichloroacetate",353.15,1,COC(=O)C(Cl)Cl,0,0,0,0
"Benzoic acid, 4-(acetylamino)-2-ethoxy-, methyl ester",484.65,1,CCOc1cc(NC(C)=O)ccc1C(=O)OC,0,0,0,1
"Naphthalene, 1,4-bis(chloromethyl)-",460.35,1,ClCc1ccc(CCl)c2ccccc12,0,0,0,0
3-fluorobenzoyl chloride,355.35,1,O=C(Cl)c1cccc(F)c1,0,0,0,0
1-(3-methoxypropoxy)propyl acetate,359.15,1,CCC(OCCCOC)OC(=O)C,0,0,0,0
2-methoxybenzonitrile,376.55,1,COc1ccccc1C#N,0,0,0,0
"Phenol, 2,4,6-trimethyl-",369.85,1,Cc1cc(C)c(O)c(C)c1,0,0,0,0
pentylbenzoate,393,1,C(CCCC)OC(C1=CC=CC=C1)=O,0,0,0,0
tripropylamine,308,1,C(CC)N(CCC)CCC,0,0,0,0
2-tert-butylfuran,280,1,C(C)(C)(C)C=1OC=CC1,0,0,0,0
2-ethylbut-1-ene,247,1,CCC(=C)CC,0,0,0,0
ethyl 2-acetyl-3-methylbutanoate,352.05,1,CCOC(=O)C(C(C)=O)C(C)C,0,0,0,0
methyl pent-4-enoate,302,1,COC(=O)CCC=C,0,0,0,0
1-isocyanatooctadecane,418.05,1,CCCCCCCCCCCCCCCCCCN=C=O,0,0,0,0
"2-Pyrimidinamine, 4-chloro-6-methyl- (9CI)",424.15,1,Cc1cc(Cl)nc(N)n1,0,0,0,0
3-octanol,341,1,CCC(CCCCC)O,0,0,0,0
"Benzenamine, 2-methyl-3-nitro- (9CI)",411.25,1,Cc1c(N)cccc1[N+](=O)[O-],0,0,0,0
"Benzenamine, 4,4'-sulfonylbis-",536.35,1,Nc1ccc(S(=O)(=O)c2ccc(N)cc2)cc1,0,0,0,0
"Benzophenone, 4-hydroxy- (6CI,7CI,8CI)",429.85,1,O=C(c1ccccc1)c1ccc(O)cc1,0,0,0,0
ethynoxyethane,282.15,1,C#COCC,0,0,0,0
"2-Oxazolidinone, 5-((3,5-dimethylphenoxy)methyl)-",501.35,1,Cc1cc(C)cc(OCC2CNC(=O)O2)c1,0,0,0,0
2-iodopentane,318,1,IC(C)CCC,0,0,0,0
"2-Propen-1-amine, N-methyl-N-nitroso- (9CI)",338.95,1,C=CCN(C)N=O,0,0,0,0
"2-Propanone, oxime",318.35,1,CC(C)=NO,0,0,0,0
"1,3-dichloropropane",294.15,1,C(CCl)CCl,0,0,0,0
3-tert-butylcyclopentanone,337,1,C(C)(C)(C)C1CC(CC1)=O,0,0,0,0
4-HYDROXYBUTYRALDEHYDE,346,1,O=CCCCO,0,0,0,0
"2,2-dimethylhexan-3-ol",329.75,1,CCCC(O)C(C)(C)C,0,0,0,0
"Phenol, 2,2'-thiobis(4,6-dichloro-",495.95,1,Oc1c(Cl)cc(Cl)cc1Sc1cc(Cl)cc(Cl)c1O,0,0,0,0
"Benzoic acid, 2-methyl-5-nitro-",432.75,1,Cc1ccc([N+](=O)[O-])cc1C(=O)O,0,0,0,1
1-chloro-4-ethoxybenzene,356.85,1,CCOc1ccc(Cl)cc1,0,0,0,0
2-chloro-1-methyl-4-propan-2-ylbenzene,358.35,1,Cc1ccc(C(C)C)cc1Cl,0,0,0,0
"2,5-Cyclohexadiene-1,4-dione, 2,3,5-trimethyl-",350.45,1,CC1=CC(=O)C(C)=C(C)C1=O,0,0,0,0
Bis(perfluorohexyl)ether,345.95,1,FC(F)(F)C(F)(F)C(F)(F)C(F)(F)C(F)(F)C(F)(F)OC(F)(F)C(F)(F)C(F)(F)C(F)(F)C(F)(F)C(F)(F)F,0,0,0,0
1-phenyl-2-butanone,364,1,C1(=CC=CC=C1)CC(CC)=O,0,0,0,0
TETRA-n-BUTYLGERMANE,363.15,1,CCCC[Ge](CCCC)(CCCC)CCCC,0,1,0,0
piperidin-2-one,406.25,1,O=C1CCCCN1,0,0,0,0
"1,2-Benzisothiazole",314.75,1,c1ccc2sncc2c1,0,0,0,0
"Pentanal, 2-methylene- (9CI)",302.25,1,C=C(C=O)CCC,0,0,0,0
2-(bromomethyl)oxolane,343.85,1,BrCC1CCCO1,0,0,0,0
2-HYDROXYACETOPHENONE,371.1,1,O=C(CO)c1ccccc1,0,0,0,0
DIPHENYLPHOSPHORYL AZIDE,385.15,1,[N-]=[N+]=NP(=O)(c1ccccc1)c1ccccc1,0,0,0,0
(1-methylpiperidin-3-yl)methanol,367.55,1,CN1CCCC(CO)C1,0,0,0,0
"Acetic acid, (trimethylsilyl)-",334.65,1,C[Si](C)(C)CC(=O)O,1,1,0,1
non-1-en-3-ol,342.65,1,C=CC(O)CCCCCC,0,0,0,0
Ethyl .alpha.-acetylcinnamate,385.05,1,CCOC(=O)C(=Cc1ccccc1)C(C)=O,0,0,0,0
2-methylquinolin-8-ol,412.55,1,Cc1ccc2cccc(O)c2n1,0,0,0,0
"1,2-dichloroethane",286.15,1,C(CCl)Cl,0,0,0,0
"2,4-dimethyl-1,3-oxazole",307.65,1,Cc1coc(C)n1,0,0,0,0
"methyl 2,2,3,3,4,4,5,5,6,6,7,7,8,8,8-pentadecafluorooctanoate",318.65,1,COC(=O)C(F)(F)C(F)(F)C(F)(F)C(F)(F)C(F)(F)C(F)(F)C(F)(F)F,0,0,0,0
"Pyrene, 1-nitro-",496.65,1,O=[N+]([O-])c1ccc2ccc3cccc4ccc1c2c34,0,0,0,0
"1H-Indole, 3-methyl-",405.15,1,Cc1c[nH]c2ccccc12,0,0,0,0
"1,1,2,3,3-pentachloroprop-1-ene",345.85,1,ClC(Cl)=C(Cl)C(Cl)Cl,0,0,0,0
6-bromohexyl acetate,294.15,1,CC(=O)OCCCCCCBr,0,0,0,0
"Alanine, 3-(p-(bis(2-chloroethyl)amino)phenyl)-, DL-",513.05,1,NC(Cc1ccc(N(CCCl)CCCl)cc1)C(=O)O,0,0,0,0
"Benzene, 1,2,4-trichloro-5-((4-chlorophenyl)sulfonyl)-",519.65,1,O=S(=O)(c1ccc(Cl)cc1)c1cc(Cl)c(Cl)cc1Cl,0,0,0,0
"1H-Benzimidazole, 2-nitro- (9CI)",478.95,1,O=[N+]([O-])c1nc2ccccc2[nH]1,0,0,0,0
"Benzoic acid, 2,4-dihydroxy-",491.95,1,O=C(O)c1ccc(O)cc1O,0,0,0,1
methyl 3-chlorobenzoate,377.15,1,COC(=O)c1cccc(Cl)c1,0,0,0,0
2-chlorotoluene,320,1,ClC1=C(C)C=CC=C1,0,0,0,0
"6-Octen-1-ol, 3,7-dimethyl-",371.45,1,CC(C)=CCCC(C)CCO,0,0,0,0
"Benzamide, N,N-diethyl-4-hydroxy-3-methoxy-",469.75,1,CCN(CC)C(=O)c1ccc(O)c(OC)c1,0,0,0,0
"Fumaric acid, dihydroxy-, dimethyl ester, diacetate",413.25,1,CC(=O)O.CC(=O)O.COC(=O)/C(O)=C(\O)C(=O)OC,0,0,0,1
"3,5-dimethylcyclohexan-1-ol",346.45,1,CC1CC(C)CC(O)C1,0,0,0,0
"Phenethyl alcohol, alpha,alpha-dimethyl-",354.25,1,CC(C)(O)Cc1ccccc1,0,0,0,0
"1H-Pyrrole-2,5-dione, 1-(2-methylphenyl)- (9CI)",412.45,1,Cc1ccccc1N1C(=O)C=CC1=O,0,0,0,0
Lauronitrile (8CI),387.15,1,CCCCCCCCCCCC#N,0,0,0,0
1-aminobutan-2-ol,334.15,1,CCC(O)CN,0,0,0,0
1-nitronaphthalene,437.15,1,C1=CC=C2C(=C1)C=CC=C2[N+](=O)[O-],0,0,0,0
"Phenol, 2,4,6-trichloro-",369.05,1,Oc1c(Cl)cc(Cl)cc1Cl,0,0,0,0
1-iodo-3-nitrobenzene,345.15,1,C1=CC(=CC(=C1)I)[N+](=O)[O-],0,0,0,0
"Benzene, 2-propenyl-",306.45,1,CC=Cc1ccccc1,0,0,0,0
3-methyloctane,297,1,CC(CC)CCCCC,0,0,0,0
"1,8-Pyrenequinone",450.95,1,O=c1ccc2ccc3ccc(=O)c4ccc1c2c34,0,0,0,0
(NZ)-N-pentan-2-ylidenehydroxylamine,351.15,1,CCC/C(C)=N\O,0,0,0,0
NEOHEPTANOIC acid,366,1,CC(C)(C)CCC(=O)O,0,0,0,1
"Benzenamine, 2-ethyl-6-methyl-",362.55,1,CCc1cccc(C)c1N,0,0,0,0
3-ethyl-3-pentanethiol,307,1,C(C)C(CC)(CC)S,0,0,0,0
"2-Benzoxazolinone, 5-chloro-3-ethyl-",412.45,1,CCn1c(=O)oc2ccc(Cl)cc21,0,0,0,0
cyclopentanecarboxaldehyde,301,1,C1(CCCC1)C=O,0,0,0,0
"Tryptophan, 5-hydroxy-, L-",541.85,1,N[C@@H](Cc1c[nH]c2ccc(O)cc12)C(=O)O,0,0,0,0
"Propane, 1,3-dibromo-2,2-bis(bromomethyl)-",425.65,1,BrCC(CBr)(CBr)CBr,0,0,0,0
"Carbamic acid, N-methyl-, 3,4-dichlorobenzyl ester",439.35,1,CNC(=O)OCc1ccc(Cl)c(Cl)c1,0,0,0,1
geranylformate,368,1,C(\C=C(/C)\CCC=C(C)C)C(=O)[O-],0,0,0,0
(Z)-2-chlorobut-2-ene,254.15,1,C/C=C(/C)Cl,0,0,0,0
"Benzaldehyde, 2,5-dihydroxy-",408.25,1,O=Cc1cc(O)ccc1O,0,0,0,0
"Benzenemethanol, 4-chloro-alpha-(4-chlorophenyl)-alpha-(ethoxymethyl)-",486.15,1,CCOCC(O)(c1ccc(Cl)cc1)c1ccc(Cl)cc1,0,0,0,0
4-Nitro-1H-imidazole (9CI),471.75,1,O=[N+]([O-])c1c[nH]cn1,0,0,0,0
"Pyridine, 2-(2-(methylamino)ethyl)-",369.85,1,CNCCc1ccccn1,0,0,0,0
methyl 3-hydroxynaphthalene-2-carboxylate,415.65,1,COC(=O)c1cc2ccccc2cc1O,0,0,0,0
2-Chloroheptane,312.4,1,CCCCCC(C)Cl,0,0,0,0
"Urea, 1-methyl-1-nitroso- (8CI)",326.25,1,CN(N=O)C(N)=O,0,0,0,0
"Morpholine, 3-methyl-2-phenyl-",385.85,1,CC1NCCOC1c1ccccc1,0,0,0,0
3-octanone,324,1,CCC(CCCCC)=O,0,0,0,0
3-trimethylsilylpropan-1-ol,325.95,1,C[Si](C)(C)CCCO,1,1,0,0
2-Morpholinoethanol,372.55,1,OCCN1CCOCC1,0,0,0,0
1-bromo-3-methylbutane,305.35,1,CC(C)CCBr,0,0,0,0
"[(1R,9aR)-2,3,4,6,7,8,9,9a-octahydro-1H-quinolizin-1-yl]methanol",372.25,1,OC[C@@H]1CCCN2CCCC[C@H]12,0,0,0,0
trans-2-BUTENE,201,1,C/C=C/C,0,0,0,0
TRIS(DIETHYLAMINO)(t-BUTYLIMINO) TANTALUM,319.15,1,CCN(CC)[Ta](=NC(C)(C)C)(N(CC)CC)N(CC)CC,0,1,0,0
Acephenanthrylene,461.75,1,C1=Cc2cc3ccccc3c3cccc1c23,0,0,0,0
(2-methoxyphenyl)methanamine,373.15,1,COc1ccccc1CN,0,0,0,0
"1,2,4-trimethylpiperazine",304.25,1,CC1CN(C)CCN1C,0,0,0,0
"Quinaldic acid, 4-hydroxy- (8CI)",443.65,1,O=C(O)c1cc(O)c2ccccc2n1,0,0,0,1
"Benzenesulfonyl chloride, o-chloro- (6CI,7CI,8CI)",402.85,1,O=S(=O)(Cl)c1ccccc1Cl,0,0,0,0
"2,4-dichloro-5-methylphenol",382.05,1,Cc1cc(O)c(Cl)cc1Cl,0,0,0,0
"Benzimidazole, 2,5-bis(trifluoromethyl)-",390.25,1,FC(F)(F)c1ccc2nc(C(F)(F)F)[nH]c2c1,0,0,0,0
"Phenothiazine-2-carbonitrile, 10-(3-(4-hydroxypiperidino)propyl)-",585.85,1,N#Cc1ccc2c(c1)N(CCCN1CCC(O)CC1)c1ccccc1S2,0,0,0,0
2-tert -butyltoluene,334.6,1,Cc1ccccc1C(C)(C)C,0,0,0,0
"Propionic acid, 2,2'-azobis(2-methyl-, diethyl ester",386.05,1,CCOC(=O)C(C)(C)N=NC(C)(C)C(=O)OCC,0,0,0,1
"o-Xylene, alpha,alpha'-dichloro-",380.15,1,ClCc1ccccc1CCl,0,0,0,0
hexylpropanoate,338,1,C(CCCCC)OC(CC)=O,0,0,0,0
methyl 2-methyl-3-oxobutanoate,505.55,1,COC(=O)C(C)C(C)=O,0,0,0,0
"Pyrrolidine, 1-nitroso-",356.45,1,O=NN1CCCC1,0,0,0,0
"Benzaldehyde, 2,3,4-trihydroxy-",423.75,1,O=Cc1ccc(O)c(O)c1O,0,0,0,0
"2,3,4,4-tetramethylhexane",304,1,CC(C)C(C(CC)(C)C)C,0,0,0,0
9-Oxabicyclo(6.1.0)nonane (8CI)(9CI),329.25,1,C1CCCC2OC2CC1,0,0,0,0
4-chlorobut-2-ynyl N-(3-chlorophenyl)carbamate,323.15,1,C1=CC(=CC(=C1)Cl)NC(=O)OCC#CCCl,0,0,0,0
"3,4-dimethylaniline",371.15,1,CC1=C(C=C(C=C1)N)C,0,0,0,0
"diheptyl benzene-1,2-dicarboxylate",497.15,1,CCCCCCCOC(=O)C1=CC=CC=C1C(=O)OCCCCCCC,0,0,0,0
"3H-Pyrazol-3-one, 2,4-dihydro-5-methyl-2-(4-methylphenyl)-",447.75,1,CC1=NN(c2ccc(C)cc2)C(=O)C1,0,0,0,0
"1,2-dinitrobenzene",423.15,1,C1=CC=C(C(=C1)[N+](=O)[O-])[N+](=O)[O-],0,0,0,0
"Hexane, 1,2-dibromo-",356.35,1,CCCCC(Br)CBr,0,0,0,0
"2-Oxazolin-4-one, 2-(dimethylamino)-5-phenyl-",405.25,1,CN(C)C1=NC(=O)C(c2ccccc2)O1,0,0,0,0
1-chloro-2-ethoxyethane,288.75,1,CCOCCCl,0,0,0,0
bis(2-ethylhexyl) hydrogen phosphate,469.15,1,CCCCC(CC)COP(=O)(O)OCC(CC)CCCC,0,0,0,0
"2,3-diacetyloxypropyl acetate",411.15,1,CC(=O)OCC(COC(=O)C)OC(=O)C,0,0,0,0
1-methyl-2-propylcyclohexane,320.85,1,CCCC1CCCCC1C,0,0,0,0
"2-Cyclohexen-1-ol, 2-methyl-5-(1-methylethenyl)-",364.35,1,C=C(C)C1CC=C(C)C(O)C1,0,0,0,0
ethyl carbamate,365.15,1,CCOC(=O)N,0,0,0,0
benzylbromide,352,1,C(C1=CC=CC=C1)Br,0,0,0,0
"Cyclohexanamine, N-cyclohexyl-N-nitroso- (9CI)",440.45,1,O=NN(C1CCCCC1)C1CCCCC1,0,0,0,0
"Ethanamine, N,N-dimethyl-",237.15,1,CCN(C)C,0,0,0,0
"1,3-Benzenediol, 2-nitro-",384.55,1,O=[N+]([O-])c1c(O)cccc1O,0,0,0,0
"2-Chloro-2,3-dimethylpentane",302.9,1,CCC(C)C(C)(C)Cl,0,0,0,0
DIPROPYLENE GLYCOL n-PROPYL ETHER,370.9,1,CCCOC(C)COC(C)CO,0,0,0,0
BORON ISOPROPOXIDE,301.15,1,CC(C)[O-].CC(C)[O-].CC(C)[O-].[B+3],0,1,0,0
"p-Cresol, 2,2'-methylenebis(6-tert-butyl- (8CI)",454.35,1,Cc1cc(Cc2cc(C)cc(C(C)(C)C)c2O)c(O)c(C(C)(C)C)c1,0,0,0,0