compound,flashpoint,pure substance,smiles,is_silicon,is_metallic,is_tin,is_acid
2-aminopropan-1-ol,336.15,1,CC(CO)N,0,0,0,0
3-Phenylpropyl isothiocyanate,408.25,1,S=C=NCCCc1ccccc1,0,0,0,0
"Benzoic acid, 2,6-difluoro-",366.65,1,O=C(O)c1c(F)cccc1F,0,0,0,1
2-(2-fluorophenyl)acetonitrile,316.15,1,N#CCc1ccccc1F,0,0,0,0
"Cyclohexanecarboxylic acid, 4-(aminomethyl)-, trans-",408.507,1,NC[C@H]1CC[C@H](C(=O)O)CC1,0,0,0,1
ethenyl pentanoate,311.55,1,C=COC(=O)CCCC,0,0,0,0
"2-Propen-1-ol, 2-methyl-3-phenyl-",395.65,1,CC(=Cc1ccccc1)CO,0,0,0,0
"Methacrylic acid, pentyl ester (8CI)",333.45,1,C=C(C)C(=O)OCCCCC,0,0,0,1
"1,2-oxazole",282.05,1,c1cnoc1,0,0,0,0
4-chlorobenzenethiol,351.75,1,Sc1ccc(Cl)cc1,0,0,0,0
3-hydroxybutan-2-one,314.15,1,CC(C(=O)C)O,0,0,0,0
piperidine hydrochloride,338,1,C1CCNCC1.Cl,0,0,0,0
"1,1,2,2,3,3,4,4,4a,5,5,6,6,7,7,8,8,8a-octadecafluoronaphthalene",319.55,1,FC1(F)C(F)(F)C(F)(F)C2(F)C(F)(F)C(F)(F)C(F)(F)C(F)(F)C2(F)C1(F)F,0,0,0,0
"2,3,4-trimethylpentan-1-ol",333,1,OCC(C)C(C)C(C)C,0,0,0,0
"Succinic acid, 2,3-dibromo- (8CI)",385.65,1,O=C(O)C(Br)C(Br)C(=O)O,0,0,0,1
heptylamine,317,1,C(CCCCCC)N,0,0,0,0
"1-Iodo-2,4-dinitrobenzene",439.75,1,O=[N+]([O-])c1ccc(I)c([N+](=O)[O-])c1,0,0,0,0
1-chloropropan-2-ol,325.15,1,CC(CCl)O,0,0,0,0
1-bromo-2-ethylbenzene,344.15,1,CCc1ccccc1Br,0,0,0,0
"Phosphonothioic acid, ethyl-, O,S-diethyl ester",364.85,1,CCOP(=O)(CC)SCC,0,0,0,1
"2-Propanone, 1-(4-methoxyphenyl)-",374.85,1,COc1ccc(CC(C)=O)cc1,0,0,0,0
"Methanone, cyclopropyl(4-methoxyphenyl)-",413.15,1,COc1ccc(C(=O)C2CC2)cc1,0,0,0,0
"Benzene, 1,1'-oxybis(2,3,4,5,6-pentabromo-",514.55,1,Brc1c(Br)c(Br)c(Oc2c(Br)c(Br)c(Br)c(Br)c2Br)c(Br)c1Br,0,0,0,0
"2,5-dimethylhexan-2-ol",329.75,1,CC(C)CCC(C)(C)O,0,0,0,0
(E)-hept-2-enal,326.85,1,CCCC/C=C/C=O,0,0,0,0
"Benzene, 1-chloro-4-iodo-",381.15,1,Clc1ccc(I)cc1,0,0,0,0
"3,5-dimethylcyclohex-2-en-1-one",352.15,1,CC1=CC(=O)CC(C)C1,0,0,0,0
"Oxiranemethanamine, N-(oxiranylmethyl)-N-phenyl-",413.25,1,c1ccc(N(CC2CO2)CC2CO2)cc1,0,0,0,0
"2-Propenoic acid, 3-(4-methoxyphenyl)-, 2-ethoxyethyl ester",437.95,1,CCOCCOC(=O)C=Cc1ccc(OC)cc1,0,0,0,1
"Aniline, p-ethyl- (8CI)",358.15,1,CCc1ccc(N)cc1,0,0,0,0
N-tert-butylaniline,361,1,C(C)(C)(C)NC1=CC=CC=C1,0,0,0,0
"2,4,4-trimethylhexane",288,1,CC(C)CC(CC)(C)C,0,0,0,0
1-fluorooctane,337.25,1,CCCCCCCCF,0,0,0,0
furfurylpropanoate,355,1,C(C1=CC=CO1)OC(CC)=O,0,0,0,0
"3-Butynal, 2,4-diphenyl-2-hydroxy-, oxime",578.65,1,ON=CC(O)(C#Cc1ccccc1)c1ccccc1,0,0,0,0
3-Cyclohexene-1-carbonitrile,338.95,1,N#CC1CC=CCC1,0,0,0,0
4-chloro-2-methylquinoline,386.15,1,Cc1cc(Cl)c2ccccc2n1,0,0,0,0
1-methoxy-2-nitrobenzene,415.15,1,COC1=CC=CC=C1[N+](=O)[O-],0,0,0,0
"Phosphorofluoridic acid, bis(1-methylethyl) ester",337.65,1,CC(C)OP(=O)(F)OC(C)C,0,0,0,1
"9,10-Anthracenedione, 1-amino-4-hydroxy-",535.85,1,Nc1ccc(O)c2c1C(=O)c1ccccc1C2=O,0,0,0,0
"Benzimidazole, 4-bromo-6-nitro-2-(trifluoromethyl)-",470.85,1,O=[N+]([O-])c1cc(Br)c2[nH]c(C(F)(F)F)nc2c1,0,0,0,0
"Phenanthrene, 9,10-dihydro-2-nitro-",459.05,1,O=[N+]([O-])c1ccc2c(c1)CCc1ccccc1-2,0,0,0,0
"2H-Pyran-2,4(3H)-dione, 3-acetyl-6-methyl-",423.75,1,CC(=O)C1C(=O)C=C(C)OC1=O,0,0,0,0
Serine,465.732,1,N[C@@H](CO)C(=O)O,0,0,0,0
1-Pyrene carboxaldehyde,567.75,1,O=Cc1ccc2ccc3cccc4ccc1c2c34,0,0,0,0
3-phenylpropylacetate,386,1,C1(=CC=CC=C1)CCCOC(C)=O,0,0,0,0
"Ethanol, 2-(2-(diethylamino)ethoxy)-",368.95,1,CCN(CC)CCOCCO,0,0,0,0
"Valeric acid, 2-bromo- (8CI)",367.35,1,CCCC(Br)C(=O)O,0,0,0,1
"Benzamide, 4-methoxy-3-nitro-N-phenyl-",458.15,1,COc1ccc(C(=O)Nc2ccccc2)cc1[N+](=O)[O-],0,0,0,0
sec-butylamine,254,1,C(C)(CC)N,0,0,0,0
"7H-1,2,3-Triazolo(4,5-d)pyrimidin-7-one, 5-amino-1,4-dihydro- (9CI)",402.25,1,Nc1nc(=O)c2[nH]nnc2[nH]1,0,0,0,0
"N-((2,4,5-Trichlorophenoxy)acetyl)-L-methionine",608.85,1,CSCC[C@H](NC(=O)COc1cc(Cl)c(Cl)cc1Cl)C(=O)O,0,0,0,0
ethyl heptadecanoate,428,1,CCCCCCCCCCCCCCCCC(=O)OCC,0,0,0,0
benzenethiol,326.15,1,C1=CC=C(C=C1)S,0,0,0,0
"8-Quinolinol, 5-chloro-7-iodo-",438.85,1,Oc1c(I)cc(Cl)c2cccnc12,0,0,0,0
3-Cyclohexene-1-carboxaldehyde,330.35,1,O=CC1CC=CCC1,0,0,0,0
undecan-5-one,345.95,1,CCCCCCC(=O)CCCC,0,0,0,0
"Benzene, 1,5-dichloro-2,4-dinitro-",431.15,1,O=[N+]([O-])c1cc([N+](=O)[O-])c(Cl)cc1Cl,0,0,0,0
"Methane, di-p-tolyl-",408.35,1,Cc1ccc(Cc2ccc(C)cc2)cc1,0,0,0,0
"1H-Indole, 5,6-dimethoxy-2-methyl-3-(2-(4-phenyl-1-piperazinyl)ethyl)-",562.95,1,COc1cc2[nH]c(C)c(CCN3CCN(c4ccccc4)CC3)c2cc1OC,0,0,0,0
"benzene-1,2-diamine",429.15,1,C1=CC=C(C(=C1)N)N,0,0,0,0
1-benzylpiperidine,367.15,1,c1ccc(CN2CCCCC2)cc1,0,0,0,0
"1,3-Butadiene, 1,1,2,3-tetrachloro-",348.95,1,C=C(Cl)C(Cl)=C(Cl)Cl,0,0,0,0
3-methylheptan-4-one,317.75,1,CCCC(=O)C(C)CC,0,0,0,0
"1,2-dimethoxybenzene",360,1,COC1=C(C=CC=C1)OC,0,0,0,0
"2-Cyclohexen-1-one, 2-methyl-5-(1-methylethenyl)-, (5S)-",370.15,1,C=C(C)[C@H]1CC=C(C)C(=O)C1,0,0,0,0
"Benzenamine, 4-ethoxy-2-nitro-",436.35,1,CCOc1ccc(N)c([N+](=O)[O-])c1,0,0,0,0
"Ethenamine, N-methyl-N-nitroso- (9CI)",318.65,1,C=CN(C)N=O,0,0,0,0
"2-Cyclohexen-1-one, 3-hexyl-5-(3,4-(methylenedioxy)phenyl)-",474.65,1,CCCCCCC1=CC(=O)CC(c2ccc3c(c2)OCO3)C1,0,0,0,0
2-phenoxybutanoic acid,388.45,1,CCC(Oc1ccccc1)C(=O)O,0,0,0,1
3-Chloro-3-methylheptane,320.3,1,CCCCC(C)(Cl)CC,0,0,0,0
"2H-1-Benzopyran-2-one, 4-hydroxy-3-(1-(4-nitrophenyl)-3-oxobutyl)-",557.75,1,CC(=O)CC(c1ccc([N+](=O)[O-])cc1)c1c(O)c2ccccc2oc1=O,0,0,0,0
"Benzaldehyde, 3,4-dihydroxy- (9CI)",419.85,1,O=Cc1ccc(O)c(O)c1,0,0,0,0
"Benzoic acid, 6-benzoyl-3-methyl- (9CI)",517.55,1,Cc1ccc(C(=O)c2ccccc2)c(C(=O)O)c1,0,0,0,1
"2-Pentanone, 4-methoxy-4-methyl-",314.45,1,COC(C)(C)CC(C)=O,0,0,0,0
biphenyl,386,1,c1ccc(cc1)c1ccccc1,0,0,0,0
1-bromo-2-chloropropane,300.7,1,CC(Cl)CBr,0,0,0,0
methyl pyridine-4-carboxylate,350.95,1,COC(=O)c1ccncc1,0,0,0,0
4-Chloro-4-methylheptane,320.3,1,CCCC(C)(Cl)CCC,0,0,0,0
"Phenol, 3-methyl-5-(1-methylethyl)-, methylcarbamate (9CI)",397.45,1,CNC(=O)Oc1cc(C)cc(C(C)C)c1,0,0,0,0
"1,3-Indandione, 4-bromo-2-phenyl-",434.95,1,O=C1c2cccc(Br)c2C(=O)C1c1ccccc1,0,0,0,0
1-bromohexane,320,1,BrCCCCCC,0,0,0,0
"1,2-dichloronaphthalene",414.75,1,Clc1ccc2ccccc2c1Cl,0,0,0,0
"2H-1-Benzopyran-2-one, 3,4-dihydro-",381.55,1,O=C1CCc2ccccc2O1,0,0,0,0
butylbenzene,323,1,C(CCC)C1=CC=CC=C1,0,0,0,0
"Ethylamine, N,N-dimethyl-2-(vinyloxy)- (6CI,7CI,8CI)",301.55,1,C=COCCN(C)C,0,0,0,0
2-iodo-2-methylpropane,280.95,1,CC(C)(C)I,0,0,0,0
2-iodoacetonitrile,359.25,1,N#CCI,0,0,0,0
"Pyridine, 4-ethenyl-",324.817,1,C=Cc1ccncc1,0,0,0,0
"1-Propyn-1-amine, N,N-diethyl- (9CI)",311.85,1,CC#CN(CC)CC,0,0,0,0
"Propanenitrile, 3-(trichlorosilyl)-",358.35,1,N#CCC[Si](Cl)(Cl)Cl,1,1,0,0
"Hydracrylaldehyde, 2,2-dimethyl- (6CI,7CI,8CI)",333.45,1,CC(C)(C=O)CO,0,0,0,0
Dodecanedioic acid,493.15,1,O=C(O)CCCCCCCCCCC(=O)O,0,0,0,1
"Isovaleric acid, 4-piperidinocyclohexyl ester",379.35,1,CC(C)CC(=O)OC1CCC(N2CCCCC2)CC1,0,0,0,1
cyclohexylacrylate,341,1,C1(CCCCC1)OC(C=C)=O,0,0,0,0
trans-3-methylcyclohexanol,335,1,C[C@@H]1CCC[C@@H](O)C1,0,0,0,0
4-tert-butylphenol,386.15,1,CC(C)(C)C1=CC=C(C=C1)O,0,0,0,0
2-methylheptadecane,382.05,1,CCCCCCCCCCCCCCCC(C)C,0,0,0,0
"1H-Indene, 2,3-dihydro-1,1-dimethyl-6-(1,1-dimethylethyl)-",367.25,1,CC(C)(C)c1ccc2c(c1)C(C)(C)CC2,0,0,0,0
"Benzoic acid, 2,3,5-triiodo-",503.15,1,O=C(O)c1cc(I)cc(I)c1I,0,0,0,1
"triethyl 2-hydroxypropane-1,2,3-tricarboxylate",428.15,1,CCOC(=O)CC(CC(=O)OCC)(C(=O)OCC)O,0,0,0,0
1-(bromomethyl)-2-methylbenzene,355.15,1,Cc1ccccc1CBr,0,0,0,0
"Androstan-3-one, 17-hydroxy-2-methyl-, (2alpha,5alpha,17beta)- (9CI)",452.55,1,C[C@@H]1C[C@@]2(C)[C@@H](CC[C@H]3[C@@H]4CC[C@H](O)[C@@]4(C)CC[C@@H]32)CC1=O,0,0,0,0
"3-ethyl-2,4-dimethylpentane",288,1,C(C)C(C(C)C)C(C)C,0,0,0,0
"Urea, (1-methylcyclopentyl)-",360.95,1,CC1(NC(N)=O)CCCC1,0,0,0,0
"N,N-diethylhydroxylamine",318.15,1,CCN(CC)O,0,0,0,0
"3-Chloro-3-ethyl-2,2-dimethylpentane",324.8,1,CCC(Cl)(CC)C(C)(C)C,0,0,0,0
"1,2,3-trimethylcyclohexane",301.05,1,CC1CCCC(C)C1C,0,0,0,0
"1-Naphthalenecarboxaldehyde, 2-hydroxy-",407.45,1,O=Cc1c(O)ccc2ccccc12,0,0,0,0
"Benzenesulfonamide, N-(5-(2-methoxyethoxy)-2-pyrimidinyl)-",538.55,1,COCCOc1cnc(NS(=O)(=O)c2ccccc2)nc1,0,0,0,0
2-octanone,329,1,CC(CCCCCC)=O,0,0,0,0
"Benzene, (2-nitroethenyl)-",390.65,1,O=[N+]([O-])C=Cc1ccccc1,0,0,0,0
"Propanenitrile, 3-(2-propenyloxy)- (9CI)",356.05,1,C=CCOCCC#N,0,0,0,0
"4,4-dimethyl-2-pentyne",263,1,CC#CC(C)(C)C,0,0,0,0
2-chloropyridine,337,1,ClC1=NC=CC=C1,0,0,0,0
ALLYLDIMETHYL(DIISOPROPYLAMINO)SILANE,335.15,1,C=CC[Si](C)(C)N(C(C)C)C(C)C,1,1,0,0
iodoethane,268,1,ICC,0,0,0,0
"3H-Pyrazol-3-one, 1,2-dihydro-1,5-dimethyl-4-(1-methylethyl)-2-phenyl-",396.95,1,Cc1c(C(C)C)c(=O)n(-c2ccccc2)n1C,0,0,0,0
2-methyl-1-pentene,246,1,CC(=C)CCC,0,0,0,0
"Benzamide, N-methyl-",449.05,1,CNC(=O)c1ccccc1,0,0,0,0
di-tert-butylsulfide,300,1,C(C)(C)(C)SC(C)(C)C,0,0,0,0
2-methyl-5-propan-2-ylbicyclo[3.1.0]hex-2-en-4-one,358.35,1,CC1=CC(=O)C2(C(C)C)CC12,0,0,0,0
4-ethyl-3-methylheptane,314,1,C(C)C(C(CC)C)CCC,0,0,0,0
"Carbamic acid, methyl-, o-sec-butylphenyl ester",397.85,1,CCC(C)c1ccccc1OC(=O)NC,0,0,0,1
"Benz(a)anthracene, 6-methyl-",490.95,1,Cc1cc2ccccc2c2cc3ccccc3cc12,0,0,0,0
"Bicyclo(2.2.1)heptan-2-one, 3-bromo-1,7,7-trimethyl-",308.95,1,CC12CCC(C(Br)C1=O)C2(C)C,0,0,0,0
"Phenol, 4-(phenylmethoxy)-",486.55,1,Oc1ccc(OCc2ccccc2)cc1,0,0,0,0
"1,1,2,2,3,3,4,4,5,5,6-undecafluoro-6-(trifluoromethyl)cyclohexane",277.35,1,FC(F)(F)C1(F)C(F)(F)C(F)(F)C(F)(F)C(F)(F)C1(F)F,0,0,0,0
"5,10-Dioxatricyclo(7.1.0.04,6)decane",378.15,1,C1CC2OC2CCC2OC12,0,0,0,0
[methoxy(methyl)phosphoryl]oxymethane,316.15,1,COP(=O)(C)OC,0,0,0,0
Adenosine,635.95,1,Nc1ncnc2c1ncn2[C@@H]1O[C@H](CO)[C@@H](O)[C@H]1O,0,0,0,0
2-cyclopentylethanol,343.55,1,OCCC1CCCC1,0,0,0,0
"benzene-1,3-diol",400.15,1,C1=CC(=CC(=C1)O)O,0,0,0,0
"Butanenitrile, 4-bromo-",377.05,1,N#CCCCBr,0,0,0,0
"Butane, 1,4-dichloro-2,3-epoxy-",406.65,1,ClCC1OC1CCl,0,0,0,0
1-decanamine,358,1,C(CCCCCCCCC)N,0,0,0,0
1-Chloro-4-methylpentane,298.2,1,CC(C)CCCCl,0,0,0,0
1-dodecanol,400,1,C(CCCCCCCCCCC)O,0,0,0,0
2-Chloro-2-methylpentane,294,1,CCCC(C)(C)Cl,0,0,0,0
"(2R,3R)-2,3-dihydroxybutanedioic acid",482.55,1,O=C(O)[C@H](O)[C@@H](O)C(=O)O,0,0,0,1
Thiazolidine,329.25,1,C1CSCN1,0,0,0,0
"2,2-dichlorobutane",288.75,1,CCC(C)(Cl)Cl,0,0,0,0
3-methyl-1H-pyridin-2-one,445.85,1,Cc1ccc[nH]c1=O,0,0,0,0
tert-butyl butanoate,320,1,CCCC(=O)OC(C)(C)C,0,0,0,0
"Benzoic acid, 4-nitro-, ethyl ester",421.35,1,CCOC(=O)c1ccc([N+](=O)[O-])cc1,0,0,0,1
2-chloroethanethiol,304.05,1,SCCCl,0,0,0,0
2-methyl-1-hexene,265,1,CC(=C)CCCC,0,0,0,0
2-propyn-1-ol,309,1,C(C#C)O,0,0,0,0
1-chloro-2-isocyanatobenzene,361.15,1,O=C=Nc1ccccc1Cl,0,0,0,0
"Diazene, (4-nitrophenyl)phenyl- (9CI)",464.55,1,O=[N+]([O-])c1ccc(N=Nc2ccccc2)cc1,0,0,0,0
"Phthalic acid, 3-nitro- (8CI)",472.55,1,O=C(O)c1cccc([N+](=O)[O-])c1C(=O)O,0,0,0,1
"Isocyanic acid, p-bromophenyl ester (6CI,7CI,8CI)",382.15,1,O=C=Nc1ccc(Br)cc1,0,0,0,1
4-sec-butylaniline,381,1,C(C)(CC)C1=CC=C(N)C=C1,0,0,0,0
N-butan-2-ylbutan-2-amine,293.75,1,CCC(C)NC(C)CC,0,0,0,0
"3,4-Xylenol, 6-amino- (8CI)",383.15,1,Cc1cc(N)c(O)cc1C,0,0,0,0
cyclohex-3-en-1-one,319.95,1,O=C1CC=CCC1,0,0,0,0
"Benzene, 1,1'-(2-nitropropylidene)bis(4-chloro-",488.95,1,CC(C(c1ccc(Cl)cc1)c1ccc(Cl)cc1)[N+](=O)[O-],0,0,0,0
"Phosphonodithious acid, methyl-, dipropyl ester",382.15,1,CCCSP(C)SCCC,0,0,0,1
"4-((2-Chloro-4-nitrophenyl)azo)-N,N-diethylbenzenamine",526.75,1,CCN(CC)c1ccc(N=Nc2ccc([N+](=O)[O-])cc2Cl)cc1,0,0,0,0
1-chloro-2-iodobenzene,384.85,1,Clc1ccccc1I,0,0,0,0
pyridin-3-ylmethanamine,373.15,1,NCc1cccnc1,0,0,0,0
"3,3,5-trimethylcyclohexan-1-one",337.15,1,CC1CC(=O)CC(C)(C)C1,0,0,0,0
"2,3-dimethylthiophene",298.95,1,Cc1ccsc1C,0,0,0,0
2-cyclopentylcyclopentanone,363,1,C1(CCCC1)C1C(CCC1)=O,0,0,0,0
dimethylphthalate,423,1,COC(C=1C(C(=O)OC)=CC=CC1)=O,0,0,0,0
"Heptanoic acid, 7-amino-",390.65,1,NCCCCCCC(=O)O,0,0,0,1
butylformate,291,1,C(CCC)OC=O,0,0,0,0
"3,3-dimethylpiperidine",305.35,1,CC1(C)CCCNC1,0,0,0,0
"1H-Indazole, 6-nitro-",458.75,1,O=[N+]([O-])c1ccc2cn[nH]c2c1,0,0,0,0
2-Imidazolidinone,475.669,1,O=C1NCCN1,0,0,0,0
1-(4-fluorophenyl)ethanone,344.15,1,CC(=O)c1ccc(F)cc1,0,0,0,0
(Z)-hex-2-en-1-ol,334.85,1,CCC/C=C\CO,0,0,0,0
"Phosphorodiamidic fluoride, tetramethyl-",321.85,1,CN(C)P(=O)(F)N(C)C,0,0,0,0
"Benzoyl chloride, m-(chlorosulfonyl)- (7CI,8CI)",434.95,1,O=C(Cl)c1cccc(S(=O)(=O)Cl)c1,0,0,0,0
VINYLTRIETHYLGERMANE,305.15,1,C=C[Ge](CC)(CC)CC,0,1,0,0
benzyliodide,370,1,C(C1=CC=CC=C1)I,0,0,0,0
"2,3,3,4-tetramethylpentane",284,1,CC(C)C(C(C)C)(C)C,0,0,0,0
"1,3,5-Triazine-2,4-diamine, N,N-diethyl-6-methoxy-N'-(1-methylethyl)-",449.25,1,CCN(CC)c1nc(NC(C)C)nc(OC)n1,0,0,0,0
4-propylphenol,379,1,C(CC)C1=CC=C(C=C1)O,0,0,0,0
triethylphosphane,255.95,1,CCP(CC)CC,0,0,0,0
"Benzoic acid, 2-hydroxy-, phenylmethyl ester",410.15,1,O=C(OCc1ccccc1)c1ccccc1O,0,0,0,1
"3-Isoxazolecarboxylic acid, 5-methyl-, 2-(phenylmethyl)hydrazide",465.55,1,Cc1cc(C(=O)NNCc2ccccc2)no1,0,0,0,1
5-Chlorododecane,372.6,1,CCCCCCCC(Cl)CCCC,0,0,0,0
methyl 2-(methylamino)benzoate,364.15,1,CNC1=CC=CC=C1C(=O)OC,0,0,0,0
"Propanoic acid, 3,3'-thiobis-, dioctadecyl ester",596.85,1,CCCCCCCCCCCCCCCCCCOC(=O)CCSCCC(=O)OCCCCCCCCCCCCCCCCCC,0,0,0,1
3-Heptanol,327.55,1,CCCCC(O)CC,0,0,0,0
cyclopentylamine,285,1,C1(CCCC1)N,0,0,0,0
"2-Propanol, 1-(1-methyl-2-propoxyethoxy)-",373.85,1,CCCOCC(C)OCC(C)O,0,0,0,0
"3,3-dimethylbutanoyl chloride",303.35,1,CC(C)(C)CC(=O)Cl,0,0,0,0
"3-(dimethoxyphosphinothioylsulfanylmethyl)-5-methoxy-1,3,4-thiadiazol-2-one",373.15,1,COC1=NN(C(=O)S1)CSP(=S)(OC)OC,0,0,0,0
"3-Chloro-2,2-dimethylbutane",288.1,1,CC(Cl)C(C)(C)C,0,0,0,0
"3-ethyl-2,4-dimethyl-1H-pyrrole",344.15,1,CCc1c(C)c[nH]c1C,0,0,0,0
hexylacetate,328,1,C(CCCCC)OC(C)=O,0,0,0,0
4-ethyl-2-methylpyridine,330.15,1,CCc1ccnc(C)c1,0,0,0,0
"Hexanedioic acid, diethyl ester",384.55,1,CCOC(=O)CCCCC(=O)OCC,0,0,0,1
butyronitrile,291,1,C(CCC)#N,0,0,0,0
"Phosphine, tributyl-",385.35,1,CCCCP(CCCC)CCCC,0,0,0,0
2-methylpropanal,254,1,CC(C=O)C,0,0,0,0
benzylmercaptan,343,1,C(C1=CC=CC=C1)S,0,0,0,0
"Dibenz(c,h)acridine",513.45,1,c1ccc2c(c1)ccc1cc3ccc4ccccc4c3nc12,0,0,0,0
"3-Hexenal, (3Z)-",333.15,1,CC/C=C\CC=O,0,0,0,0
"1-(4-chlorophenoxy)-3,3-dimethyl-1-(1,2,4-triazol-1-yl)butan-2-one",345.15,1,CC(C)(C)C(=O)C(N1C=NC=N1)OC2=CC=C(C=C2)Cl,0,0,0,0
"dinonyl benzene-1,2-dicarboxylate",489.15,1,CCCCCCCCCOC(=O)C1=CC=CC=C1C(=O)OCCCCCCCCC,0,0,0,0
"Acetamide, N-9H-fluoren-2-yl-",550.35,1,CC(=O)Nc1ccc2c(c1)Cc1ccccc1-2,0,0,0,0
(3-methylphenyl)methanamine,353.75,1,Cc1cccc(CN)c1,0,0,0,0
propylcyclopentane,289,1,C(CC)C1CCCC1,0,0,0,0
pyridin-3-ylmethanol,370.65,1,OCc1cccnc1,0,0,0,0
"1,3-dioxolan-2-one",416.15,1,C1COC(=O)O1,0,0,0,0
"5H-Dibenzo(a,d)cycloheptene-5-carboxamide, 10,11-dihydro-",492.35,1,NC(=O)C1c2ccccc2CCc2ccccc21,0,0,0,0
"3H-Pyrazol-3-one, 1,2-dihydro-1,5-dimethyl-2-phenyl-",387.95,1,Cc1cc(=O)n(-c2ccccc2)n1C,0,0,0,0
"Benzothiazole, 2-amino-",412.95,1,Nc1nc2ccccc2s1,0,0,0,0
3-Hydroxy-3-methylbutan-1-ol,364.45,1,CC(C)(O)CCO,0,0,0,0
"Pyridine, 3-amino-",397.15,1,Nc1cccnc1,0,0,0,0
1-Chlorophthalazine,478.75,1,Clc1nncc2ccccc12,0,0,0,0
"Hexanenitrile, 6-amino-",366.75,1,N#CCCCCCN,0,0,0,0
"9,10-Anthracenedione, 1,4,5-trihydroxy-7-methoxy-2-methyl- (9CI)",502.75,1,COc1cc(O)c2c(c1)C(=O)c1c(O)c(C)cc(O)c1C2=O,0,0,0,0
butylacetate,298,1,C(CCC)OC(C)=O,0,0,0,0
BORON n-BUTOXIDE,366.15,1,CCCC[O-].CCCC[O-].CCCC[O-].[B+3],0,1,0,0
"ethyl (2E,4E)-hexa-2,4-dienoate",342,1,CCOC(=O)/C=C/C=C/C,0,0,0,0
1-bromo-4-methylbenzene,358.15,1,CC1=CC=C(C=C1)Br,0,0,0,0
"Propane, 1-isothiocyanato-",258.15,1,CCCN=C=S,0,0,0,0
"Benzamide, N-(5-chloro-9,10-dihydro-9,10-dioxo-1-anthracenyl)-",533.15,1,O=C(Nc1cccc2c1C(=O)c1cccc(Cl)c1C2=O)c1ccccc1,0,0,0,0
2-cyclopentylcyclopentan-1-ol,375.05,1,OC1CCCC1C1CCCC1,0,0,0,0
"Acetic acid, (o-nitrophenyl)-",429.05,1,O=C(O)Cc1ccccc1[N+](=O)[O-],0,0,0,1
"Tricyclo(3.3.1.13,7)decanone (9CI)",368.85,1,O=C1C2CC3CC(C2)CC1C3,0,0,0,0
1-chloro-4-methylbenzene,413.15,1,CC1=CC=C(C=C1)Cl,0,0,0,0
dichloro-ethyl-sulfanylidene-λ5-phosphane,368.15,1,CCP(=S)(Cl)Cl,0,0,0,0
"Benzaldehyde, 4-phenoxy- (9CI)",385.15,1,O=Cc1ccc(Oc2ccccc2)cc1,0,0,0,0
dodecanal,375,1,C(CCCCCCCCCCC)=O,0,0,0,0
1-phenylpropan-2-amine,300.15,1,CC(CC1=CC=CC=C1)N,0,0,0,0
"2,6,10,15,19,23-hexamethyltetracosane",490,1,CC(CCCCC(C)CCCC(C)CCCC(C)C)CCCC(C)CCCC(C)C,0,0,0,0
"2,3,4-trimethylphenol",378.45,1,Cc1ccc(O)c(C)c1C,0,0,0,0
3-Chloroquinoline,406.35,1,Clc1cnc2ccccc2c1,0,0,0,0
Ethyl vinyl ketone,263.15,1,C=CC(=O)CC,0,0,0,0
"Anthracene, 9-methyl-",430.65,1,Cc1c2ccccc2cc2ccccc12,0,0,0,0
"Butanoic acid, 4-bromo-, ethyl ester (9CI)",363.75,1,CCOC(=O)CCCBr,0,0,0,1
"Toluene, p-chloro-alpha,alpha,alpha-trifluoro-",320.15,1,FC(F)(F)c1ccc(Cl)cc1,0,0,0,0
methyl (13Z)-docos-13-enoate,306,1,CCCCCCCC/C=C\CCCCCCCCCCCC(=O)OC,0,0,0,0
"diethoxy-sulfanylidene-(3,5,6-trichloropyridin-2-yl)oxy-λ5-phosphane",301.15,1,CCOP(=S)(OCC)OC1=NC(=C(C=C1Cl)Cl)Cl,0,0,0,0
tripropan-2-yl phosphate,375.55,1,CC(C)OP(=O)(OC(C)C)OC(C)C,0,0,0,0
"Cinchonan-9-ol, 6'-methoxy-, (9S)-",526.85,1,C=C[C@H]1CN2CC[C@H]1C[C@@H]2[C@@H](O)c1ccnc2ccc(OC)cc12,0,0,0,0
SILVER NEODECANOATE,375.15,1,CC(C)(C)CCCCCC(=O)[O-].[Ag+],0,1,0,0
cyclohexyloxybenzene,372.05,1,c1ccc(OC2CCCCC2)cc1,0,0,0,0
chlorosulfonyloxymethane,306.95,1,COS(=O)(=O)Cl,0,0,0,0
"Benzoic acid, 4-((dipropylamino)sulfonyl)-",491.85,1,CCCN(CCC)S(=O)(=O)c1ccc(C(=O)O)cc1,0,0,0,1
"Pregna-1,4-diene-3,11,20-trione, 17,21-dihydroxy-",587.95,1,C[C@]12CC(=O)[C@H]3[C@@H](CCC4=CC(=O)C=C[C@@]43C)[C@@H]1CC[C@]2(O)C(=O)CO,0,0,0,0
1-cyclohexylethanone,334.55,1,CC(=O)C1CCCCC1,0,0,0,0
"Ethylenediamine, N,N-dimethyl- (8CI)",297.05,1,CN(C)CCN,0,0,0,0
(NE)-N-(1-phenylethylidene)hydroxylamine,411.25,1,C/C(=N\O)c1ccccc1,0,0,0,0
o-CHLORONITROBENZENE,400.1,1,O=[N+]([O-])c1ccccc1Cl,0,0,0,0
"Benzenamine, 4,6-dinitro-3-methyl- (9CI)",475.65,1,Cc1cc(N)c([N+](=O)[O-])cc1[N+](=O)[O-],0,0,0,0
"Benzene, 1-ethyl-4-nitro-",380.85,1,CCc1ccc([N+](=O)[O-])cc1,0,0,0,0
"Phenol, 2,2'-sulfinylbis(4,6-dichloro-",549.15,1,O=S(c1cc(Cl)cc(Cl)c1O)c1cc(Cl)cc(Cl)c1O,0,0,0,0
"1H-1,2,4-Triazole",412.25,1,c1nc[nH]n1,0,0,0,0
"1-hydroperoxy-3,5-di(propan-2-yl)benzene",352.15,1,CC(C)C1=CC(=CC(=C1)OO)C(C)C,0,0,0,0
3-Chlorocrotonaldehyde,312.85,1,C/C(Cl)=C/C=O,0,0,0,0
"Phosphorothioic acid, S-2,2-dichlorovinyl O,O-diethyl ester",387.05,1,CCOP(=O)(OCC)SC=C(Cl)Cl,0,0,0,1
Ethyl ,545.25,1,[CH2]C,0,0,0,0
methyl 2-phenylbutanoate,366.75,1,CCC(C(=O)OC)c1ccccc1,0,0,0,0
butyl octanoate,372.15,1,CCCCCCCC(=O)OCCCC,0,0,0,0
4-(2-methylbutan-2-yl)phenol,384.15,1,CCC(C)(C)C1=CC=C(C=C1)O,0,0,0,0
TRIS(DIMETHYLAMINO)GALLIUM,329.15,1,CN(C)[Ga](N(C)C)N(C)C,0,1,0,0
"2,2,4-trimethylhexane",286,1,CC(C)(CC(CC)C)C,0,0,0,0
"1,1,2,2,3,3,4,5,5,6-decafluoro-4,6-bis(trifluoromethyl)cyclohexane",284.65,1,FC(F)(F)C1(F)C(F)(F)C(F)(F)C(F)(F)C(F)(C(F)(F)F)C1(F)F,0,0,0,0
"Benzenebutanoic acid, 4-(bis(2-chloroethyl)amino)-",505.25,1,O=C(O)CCCc1ccc(N(CCCl)CCCl)cc1,0,0,0,1
"Phosphonodithioic acid, ethyl-, S-(4-chlorophenyl) O-ethyl ester",441.25,1,CCOP(=S)(CC)Sc1ccc(Cl)cc1,0,0,0,1
[dimethylamino(ethoxy)phosphoryl]formonitrile,351.15,1,CCOP(=O)(C#N)N(C)C,0,0,0,0
3-butylpyridine,352.15,1,CCCCc1cccnc1,0,0,0,0
"Phosphonodithioic acid, ethyl-, O-ethyl S-(4-methylphenyl) ester (9CI)",435.75,1,CCOP(=S)(CC)Sc1ccc(C)cc1,0,0,0,1
"Phenol, 4,4'-(2,2,2-trifluoro-1-(trifluoromethyl)ethylidene)bis-",435.05,1,Oc1ccc(C(c2ccc(O)cc2)(C(F)(F)F)C(F)(F)F)cc1,0,0,0,0
"1,1,1-trichloro-2-fluoroethane",279.35,1,FCC(Cl)(Cl)Cl,0,0,0,0
"Benzoic acid, 3,6-dichloro-2-methoxy-",424.15,1,COc1c(Cl)ccc(Cl)c1C(=O)O,0,0,0,1
"Benzaldehyde, 3-bromo-4-hydroxy-5-methoxy-",402.05,1,COc1cc(C=O)cc(Br)c1O,0,0,0,0
"Phosphoric acid, diethyl p-(methylsulfonyl)phenyl ester",473.95,1,CCOP(=O)(OCC)Oc1ccc(S(C)(=O)=O)cc1,0,0,0,1
(4-methylphenyl)-phenyldiazene,431.45,1,Cc1ccc(N=Nc2ccccc2)cc1,0,0,0,0
"2,3-di(butanoyloxy)propyl butanoate",629.15,1,CCCC(=O)OCC(COC(=O)CCC)OC(=O)CCC,0,0,0,0
"2,5-dimethylaniline",367.15,1,CC1=CC(=C(C=C1)C)N,0,0,0,0
diethyl fumarate,364,1,CCOC(=O)/C=C/C(=O)OCC,0,0,0,0
"Phosphorothioic acid, O,O-diethyl O-(2-(ethylsulfinyl)ethyl) ester",453.75,1,CCOP(=S)(OCC)OCCS(=O)CC,0,0,0,1
"tert-butyl 4-[[(E)-(1,3-dimethyl-5-phenoxypyrazol-4-yl)methylideneamino]oxymethyl]benzoate",358.15,1,CC1=NN(C(=C1C=NOCC2=CC=C(C=C2)C(=O)OC(C)(C)C)OC3=CC=CC=C3)C,0,0,0,0