compound,flashpoint,pure substance,smiles,is_silicon,is_metallic,is_tin,is_acid
"Carbamic acid, methyl-, 3-methylphenyl ester",373.05,1,CNC(=O)Oc1cccc(C)c1,0,0,0,1
"Phosphorothioic acid, S-(2-(ethylsulfinyl)ethyl) O,O-dimethyl ester",455.35,1,CCS(=O)CCSP(=O)(OC)OC,0,0,0,1
"m-Xylene, 2,4-dinitro-",414.35,1,Cc1ccc([N+](=O)[O-])c(C)c1[N+](=O)[O-],0,0,0,0
"Phenol, p-vinyl-, acetate (6CI,7CI,8CI)",361.15,1,C=Cc1ccc(OC(C)=O)cc1,0,0,0,0
propylbutanoate,308,1,C(CC)OC(CCC)=O,0,0,0,0
2-butanone,266,1,CC(CC)=O,0,0,0,0
4-methylpent-1-ene,241.15,1,CC(C)CC=C,0,0,0,0
"Benzimidazole, 4,5,6-tribromo-2-(trifluoromethyl)-",486.95,1,FC(F)(F)c1nc2cc(Br)c(Br)c(Br)c2[nH]1,0,0,0,0
"2-Pyrazolin-3-ol, 1-phenyl- (7CI)",410.85,1,OC1=NN(c2ccccc2)CC1,0,0,0,0
"Tricyclo(3.3.1.1(sup 3,7))decan-1-amine",369.15,1,NC12CC3CC(CC(C3)C1)C2,0,0,0,0
octylformate,342,1,C(CCCCCCC)OC=O,0,0,0,0
BENZAMIDE,430,1,NC(=O)c1ccccc1,0,0,0,0
2-dodecyne,351,1,CC#CCCCCCCCCC,0,0,0,0
"Benzenamine, 3-methoxy-4-methyl-",382.75,1,COc1cc(N)ccc1C,0,0,0,0
butanedinitrile,405.15,1,C(CC#N)C#N,0,0,0,0
5-Methyl-o-nitroaniline,415.95,1,Cc1ccc([N+](=O)[O-])c(N)c1,0,0,0,0
dimethyl sulfite,303.15,1,COS(=O)OC,0,0,0,0
2-bromophenol,315.15,1,C1=CC=C(C(=C1)O)Br,0,0,0,0
"3,5-dichlorobenzaldehyde",371.45,1,O=Cc1cc(Cl)cc(Cl)c1,0,0,0,0
"1,3-Benzenediol, 4-hexyl-",428.35,1,CCCCCCc1ccc(O)cc1O,0,0,0,0
"3,6,9,12,15-Pentaoxaheptadecane",384.95,1,CCOCCOCCOCCOCCOCC,0,0,0,0
"Benzaldehyde, 4-propoxy-",391.45,1,CCCOc1ccc(C=O)cc1,0,0,0,0
5-methylpyrrolidin-2-one,400.65,1,CC1CCC(=O)N1,0,0,0,0
"1,4-Benzenediol, 2,3,5,6-tetrachloro-",400.05,1,Oc1c(Cl)c(Cl)c(O)c(Cl)c1Cl,0,0,0,0
pentylpropanoate,326,1,C(CCCC)OC(CC)=O,0,0,0,0
"1,4-dioxane",284,1,O1CCOCC1,0,0,0,0
"Phosphorothioic acid, O,O,O-trimethyl ester",306.35,1,COP(=S)(OC)OC,0,0,0,1
"Propane, 1,1,3,3-tetraethoxy- (9CI)",315.35,1,CCOC(CC(OCC)OCC)OCC,0,0,0,0
"2H-1,2,4-Benzothiadiazine-7-sulfonamide, 6-chloro-3-ethyl-3,4-dihydro-",567.75,1,CCC1NSc2cc(S(N)(=O)=O)c(Cl)cc2N1,0,0,0,0
"1,2,3-Trifluoro-4-nitrobenzene",366.15,1,O=[N+]([O-])c1ccc(F)c(F)c1F,0,0,0,0
"Anthranilic acid, allyl ester (8CI)",429.25,1,C=CCOC(=O)c1ccccc1N,0,0,0,1
"Benzoxazole, 2-phenyl-",391.85,1,c1ccc(-c2nc3ccccc3o2)cc1,0,0,0,0
"Phenol, 4-((phenylmethylene)amino)- (9CI)",512.15,1,Oc1ccc(N=Cc2ccccc2)cc1,0,0,0,0
"Isopentyl alcohol, benzoate (6CI,8CI)",382.55,1,CC(C)CCOC(=O)c1ccccc1,0,0,0,0
trans-2-PENTADECENE,396,1,C/C=C/CCCCCCCCCCCC,0,0,0,0
geranylacetate,377,1,C(\C=C(/C)\CCC=C(C)C)CC(=O)[O-],0,0,0,0
methyl 4-methylbenzoate,369.15,1,CC1=CC=C(C=C1)C(=O)OC,0,0,0,0
4-hexylaniline,394.512,1,CCCCCCc1ccc(N)cc1,0,0,0,0
1-ethyl-4-methoxybenzene,341.65,1,CCc1ccc(OC)cc1,0,0,0,0
"Toluene, m-chloro-alpha,alpha,alpha-trifluoro- (8CI)",309.15,1,FC(F)(F)c1cccc(Cl)c1,0,0,0,0
2-(tert-butylamino)ethyl 2-methylprop-2-enoate,369.15,1,CC(=C)C(=O)OCCNC(C)(C)C,0,0,0,0
"1-Chloro-2,2-dimethylbutane",292.2,1,CCC(C)(C)CCl,0,0,0,0
(Z)-undec-2-ene,334.35,1,C/C=C\CCCCCCCC,0,0,0,0
"1,1-dichlorobutane",291.45,1,CCCC(Cl)Cl,0,0,0,0
"2,5-Furandione, 3-methyl-",374.15,1,CC1=CC(=O)OC1=O,0,0,0,0
3-(4-methylphenyl)propanal,372.55,1,Cc1ccc(CCC=O)cc1,0,0,0,0
chloro(iodo)methane,288.75,1,ClCI,0,0,0,0
Octadecanamide,480.65,1,CCCCCCCCCCCCCCCCCC(N)=O,0,0,0,0
propyleneoxide,236,1,C1C(C)O1,0,0,0,0
"Benzaldehyde, pentafluoro- (8CI)(9CI)",350.95,1,O=Cc1c(F)c(F)c(F)c(F)c1F,0,0,0,0
"2(1H)-Pyridone, 1-(m-aminophenyl)-",483.85,1,Nc1cccc(-n2ccccc2=O)c1,0,0,0,0
1-propoxybutane,288.75,1,CCCCOCCC,0,0,0,0
"3H-Pyrazol-3-one, 2,4-dihydro-5-methyl-2-phenyl-",428.35,1,CC1=NN(c2ccccc2)C(=O)C1,0,0,0,0
N-[4-(2-chloroacetyl)phenyl]acetamide,383.15,1,CC(=O)NC1=CC=C(C=C1)C(=O)CCl,0,0,0,0
"3,4-dibromothiophene",363.55,1,Brc1cscc1Br,0,0,0,0
6-oxabicyclo[3.1.0]hexane,283.15,1,C1CC2OC2C1,0,0,0,0
1-ethoxynaphthalene,382.55,1,CCOc1cccc2ccccc12,0,0,0,0
"Phenol, 3-bromo-",364.25,1,Oc1cccc(Br)c1,0,0,0,0
Cyclo(L-leucylglycyl),480.55,1,CC(C)C[C@@H]1NC(=O)CNC1=O,0,0,0,0
2-methylpyridine,309.15,1,CC1=CC=CC=N1,0,0,0,0
"Benzamide, p-amino- (8CI)",438.05,1,NC(=O)c1ccc(N)cc1,0,0,0,0
"3,3-Bis(4-hydroxy-3,5-diiodophenyl)-1(3H)-isobenzofuranone",624.95,1,O=C1OC(c2cc(I)c(O)c(I)c2)(c2cc(I)c(O)c(I)c2)c2ccccc21,0,0,0,0
"(2R,3R,4R,5S)-hexane-1,2,3,4,5,6-hexol",556.15,1,C(C(C(C(C(CO)O)O)O)O)O,0,0,0,0
Benzyl disulfide (8CI),422.15,1,c1ccc(CSSCc2ccccc2)cc1,0,0,0,0
"1,1,2-trimethylbenzo[e]indole",455.15,1,CC1=NC2=C(C1(C)C)C3=CC=CC=C3C=C2,0,0,0,0
trans-2-methylcyclohexanol,331,1,C[C@@H]1CCCC[C@H]1O,0,0,0,0
"2-Butenamide, N-ethyl-N-(2-methylphenyl)-",388.65,1,CC=CC(=O)N(CC)c1ccccc1C,0,0,0,0
"Benzopyran-2-one, 6,7-dimethoxy- (9CI)",439.95,1,COc1cc2ccc(=O)oc2cc1OC,0,0,0,0
"1,2-Benzenediamine",383.15,1,Nc1ccccc1N,0,0,0,0
pentylcyclohexane,336,1,C(CCCC)C1CCCCC1,0,0,0,0
3-methylidene-6-(propan-2-yl)cyclohex-1-ene,322,1,C=C1CCC(C=C1)C(C)C,0,0,0,0
2-Nonenoic acid,441.45,1,CCCCCCC=CC(=O)O,0,0,0,1
"2,6-ditert-butyl-4-methylphenol",400.15,1,CC1=CC(=C(C(=C1)C(C)(C)C)O)C(C)(C)C,0,0,0,0
"Piperazine, 1-(phenylmethyl)-",388.75,1,c1ccc(CN2CCNCC2)cc1,0,0,0,0
"Pyrimidine, 4,6-dimethyl-2-(5-nitro-2-furyl)-",388.85,1,Cc1cc(C)nc(-c2ccc([N+](=O)[O-])o2)n1,0,0,0,0
Benzoyl isothiocyanate,379.15,1,O=C(N=C=S)c1ccccc1,0,0,0,0
2-pentylacetate,305,1,C(CCCC)CC(=O)[O-],0,0,0,0
"1-bromo-3,5-dichlorobenzene",377.05,1,Clc1cc(Cl)cc(Br)c1,0,0,0,0
"Phenol, 2,6-dibromo-4-nitro-",407.05,1,O=[N+]([O-])c1cc(Br)c(O)c(Br)c1,0,0,0,0
3-chloroprop-1-yne,292.05,1,C#CCCl,0,0,0,0
"2-Propen-1-one, 1-(4-fluorophenyl)-3-phenyl- (9CI)",433.45,1,O=C(C=Cc1ccccc1)c1ccc(F)cc1,0,0,0,0
1-cyclopentylethanone,320.15,1,CC(=O)C1CCCC1,0,0,0,0
"1,2,3-Propanetriol, tripropanoate",393.95,1,CCC(=O)OCC(COC(=O)CC)OC(=O)CC,0,0,0,0
2-phenylethanol,369.15,1,C1=CC=C(C=C1)CCO,0,0,0,0
"Pteridine, 2,4,7-triamino-6-phenyl-",608.65,1,Nc1nc(N)c2nc(-c3ccccc3)c(N)nc2n1,0,0,0,0
"Estra-1,3,5(10)-triene-3,17-diol, (17beta)-",482.75,1,C[C@]12CC[C@@H]3c4ccc(O)cc4CC[C@H]3[C@@H]1CC[C@@H]2O,0,0,0,0
"2,6-dimethylphenol",347.15,1,CC1=C(C(=CC=C1)C)O,0,0,0,0
nonylcyclohexane,389.95,1,CCCCCCCCCC1CCCCC1,0,0,0,0
3-(2-cyanoethylamino)propanenitrile,383.15,1,C(CNCCC#N)C#N,0,0,0,0
"1,3-diethoxybenzene",360.25,1,CCOc1cccc(OCC)c1,0,0,0,0
3-ethylpentane,261,1,C(C)C(CC)CC,0,0,0,0
2-undecanone,362,1,CC(CCCCCCCCC)=O,0,0,0,0
1-bromo-4-tert-butylbenzene,370.15,1,CC(C)(C)c1ccc(Br)cc1,0,0,0,0
3-isopropylphenol,377,1,C(C)(C)C=1C=C(C=CC1)O,0,0,0,0
2-ethyl-5-methylfuran,288.25,1,CCc1ccc(C)o1,0,0,0,0
Methyl 2-naphthyl ether,375.45,1,COc1ccc2ccccc2c1,0,0,0,0
"Benzenamine, 4-chloro-2-nitro-",413.65,1,Nc1ccc(Cl)cc1[N+](=O)[O-],0,0,0,0
trans-2-pentene,228,1,C\C=C\CC,0,0,0,0
"2H-1,2,4-Benzothiadiazine, 7-chloro-3-methyl-, 1,1-dioxide",477.85,1,CC1=Nc2ccc(Cl)cc2S(=O)(=O)N1,0,0,0,0
"Acetic acid, (3,4-methylenedioxy)benzyl ester",386.15,1,CC(=O)OCc1ccc2c(c1)OCO2,0,0,0,1
"Propanoic acid, 2,3-dichloro- (9CI)",358.95,1,O=C(O)C(Cl)CCl,0,0,0,1
"N,N-dimethyl-3-nitroaniline",390.15,1,CN(C)c1cccc([N+](=O)[O-])c1,0,0,0,0
"5H-Dibenz(b,f)azepine, 10,11-dihydro-5-(3-(methylamino)propyl)-",433.65,1,CNCCCN1c2ccccc2CCc2ccccc21,0,0,0,0
4-methylaniline,360.15,1,CC1=CC=C(C=C1)N,0,0,0,0
allylformate,279,1,C(C=C)C(=O)[O-],0,0,0,0
n-TETRADECYLAMINE,406,1,CCCCCCCCCCCCCCN,0,0,0,0
3-methylbutanoicanhydride,364,1,CC(CC(=O)OC(CC(C)C)=O)C,0,0,0,0
"diethyl benzene-1,3-dicarboxylate",430.85,1,CCOC(=O)c1cccc(C(=O)OCC)c1,0,0,0,0
"Benzimidazole, 4,5-dichloro-6-nitro-2-(trifluoromethyl)-",477.35,1,O=[N+]([O-])c1cc2nc(C(F)(F)F)[nH]c2c(Cl)c1Cl,0,0,0,0
"Benzene, 1-ethoxy-4-nitroso-",388.25,1,CCOc1ccc(N=O)cc1,0,0,0,0
4-fluorostyrene,308,1,FC1=CC=C(C=C)C=C1,0,0,0,0
"1-N,4-N-di(butan-2-yl)benzene-1,4-diamine",414.15,1,CCC(C)NC1=CC=C(C=C1)NC(C)CC,0,0,0,0
"2,4-dimethylpyridine",320,1,CC1=NC=CC(=C1)C,0,0,0,0
"Acetamide, 2-fluoro-",383.55,1,NC(=O)CF,0,0,0,0
"Propane, 1-iodo-",307.15,1,CCCI,0,0,0,0
"4-N-phenylbenzene-1,4-diamine",466.15,1,C1=CC=C(C=C1)NC2=CC=C(C=C2)N,0,0,0,0
"Glycine, N,N-bis(carboxymethyl)-",528.25,1,O=C(O)CN(CC(=O)O)CC(=O)O,0,0,0,0
2-nitroaniline,441.15,1,C1=CC=C(C(=C1)N)[N+](=O)[O-],0,0,0,0
vinylbutanoate,293,1,C(=C)OC(CCC)=O,0,0,0,0
"(1R,2S)-2-methylcyclopentan-1-ol",320.35,1,C[C@H]1CCC[C@H]1O,0,0,0,0
"1,4-Benzenediamine, 2-methyl-",413.75,1,Cc1cc(N)ccc1N,0,0,0,0
"Pyridine, 4-amino-, 1-oxide",358.85,1,Nc1cc[n+]([O-])cc1,0,0,0,0
"2-Propen-1-ol, 3-phenyl-, benzoate",449.25,1,O=C(OCC=Cc1ccccc1)c1ccccc1,0,0,0,0
"1,2-BENZENEDICARBOXYLIC acid, HEPTYL, NONYL ESTER",500,1,CCCCCCCCCOC(=O)c1ccccc1C(=O)OCCCCCCC,0,0,0,1
"Salicylaldehyde, 3-ethoxy- (8CI)",371.05,1,CCOc1cccc(C=O)c1O,0,0,0,0
"Benzenesulfonamide, 4-amino-N-(4,6-dimethyl-2-pyrimidinyl)-",545.25,1,Cc1cc(C)nc(NS(=O)(=O)c2ccc(N)cc2)n1,0,0,0,0
"Stigmast-5-en-3-ol, (3beta)-",493.55,1,CC[C@H](CC[C@@H](C)[C@H]1CC[C@H]2[C@@H]3CC=C4C[C@@H](O)CC[C@]4(C)[C@H]3CC[C@@]21C)C(C)C,0,0,0,0
"Octanedioic acid, dimethyl ester",384.55,1,COC(=O)CCCCCCC(=O)OC,0,0,0,1
"Carbonochloridic acid, 2-chloroethyl ester",343.15,1,O=C(Cl)OCCCl,0,0,0,1
"Urea, 1-ethyl-3-phenyl-2-thio- (8CI)",387.15,1,CCNC(=S)Nc1ccccc1,0,0,0,0
1-methyl-4-(trifluoromethyl)benzene,300.15,1,Cc1ccc(C(F)(F)F)cc1,0,0,0,0
3-methylpent-1-ene,245,1,CC(CC)C=C,0,0,0,0
TRI-n-BUTYLTIN HYDRIDE,313.15,1,CCCC[SnH](CCCC)CCCC,0,1,1,0
"Benzaldehyde, 3-bromo-4-hydroxy-",384.95,1,O=Cc1ccc(O)c(Br)c1,0,0,0,0
4-methyloctane,295,1,CC(CCC)CCCC,0,0,0,0
"3,6-dimethyloctane",356.65,1,CCC(C)CCC(C)CC,0,0,0,0
1-iodo-4-methylbenzene,359.45,1,Cc1ccc(I)cc1,0,0,0,0
"Ethanol, 2-chloro-, phosphate (3:1)",505.35,1,O=P(O)(O)O.OCCCl.OCCCl.OCCCl,0,0,0,0
1-phenylpropan-2-ylbenzene,385.05,1,CC(Cc1ccccc1)c1ccccc1,0,0,0,0
"3,3,5-trimethylcyclohexan-1-ol",347.15,1,CC1CC(CC(C1)(C)C)O,0,0,0,0
ethyl but-3-enoate,303.85,1,C=CCC(=O)OCC,0,0,0,0
"Acenaphthylene, 1,2-dihydro-",408.15,1,c1cc2c3c(cccc3c1)CC2,0,0,0,0
"3,5-dimethylheptane",288,1,CC(CC)CC(CC)C,0,0,0,0
"(2R,3S,4S,5R,6R)-2-(hydroxymethyl)-6-[(E)-3-phenylprop-2-enoxy]oxane-3,4,5-triol",460.15,1,C1=CC=C(C=C1)C=CCOC2C(C(C(C(O2)CO)O)O)O,0,0,0,0
"Pyridine, 2,5-dimethyl-",321.15,1,Cc1ccc(C)nc1,0,0,0,0
3-chloropropan-1-ol,346.15,1,C(CO)CCl,0,0,0,0
Tridecan-7-one,352.85,1,CCCCCCC(=O)CCCCCC,0,0,0,0
ALUMINUM DIISOPROPOXIDE ETHYLACETOACETATE,323.15,1,CC(C)[O-].CC(C)[O-].CCOC(=O)CC(C)=O.[Al+2],0,1,0,0
"Propionic acid, benzyl ester (6CI,7CI,8CI)",369.25,1,CCC(=O)OCc1ccccc1,0,0,0,1
"Benzyl alcohol, p-hydroxy- (8CI)",418.95,1,OCc1ccc(O)cc1,0,0,0,0
"Butanoic acid, 3-methyl-, phenylmethyl ester",372.05,1,CC(C)CC(=O)OCc1ccccc1,0,0,0,1
"Chalcone, 4'-hydroxy- (8CI)",452.25,1,O=C(C=Cc1ccccc1)c1ccc(O)cc1,0,0,0,0
"3,4,5-trimethylheptane",304,1,CC(CC)C(C(CC)C)C,0,0,0,0
"Benzenamine, N-2-propenyl-",362.55,1,C=CCNc1ccccc1,0,0,0,0
Propiolactone,343.15,1,O=C1CCO1,0,0,0,0
"1,3-Cyclohexanedione, 5,5-dimethyl-",358.25,1,CC1(C)CC(=O)CC(=O)C1,0,0,0,0
"1,3-Isobenzofurandione, 4,5,6,7-tetrabromo-",553.85,1,O=C1OC(=O)c2c(Br)c(Br)c(Br)c(Br)c21,0,0,0,0
"2-Anthraquinonecarboxaldehyde, 3-hydroxy-1-methoxy-",478.05,1,COc1c(C=O)c(O)cc2c1C(=O)c1ccccc1C2=O,0,0,0,0
chloromethylmethylsulfide,290,1,ClCSC,0,0,0,0
Xylitol,535.05,1,OC[C@H](O)[C@@H](O)[C@H](O)CO,0,0,0,0
"2,4-dimethylthiophene",296.15,1,Cc1csc(C)c1,0,0,0,0
"2,3,4,5,6-pentafluorobenzoic acid",360.05,1,O=C(O)c1c(F)c(F)c(F)c(F)c1F,0,0,0,1
n-PENTADECYLBENZENE,456,1,CCCCCCCCCCCCCCCc1ccccc1,0,0,0,0
"Benzenamine, 3-methoxy-",382.75,1,COc1cccc(N)c1,0,0,0,0
"Benzene, 1,2-dimethyl-3,5-dinitro-",438.75,1,Cc1cc([N+](=O)[O-])cc([N+](=O)[O-])c1C,0,0,0,0
"9H-Fluoren-2-amine, N-hydroxy- (9CI)",458.95,1,ONc1ccc2c(c1)Cc1ccccc1-2,0,0,0,0
1-METHYL-3-(METHYLETHOXY)BENZENE,339,1,Cc1cccc(OC(C)C)c1,0,0,0,0
"Benzene, (pentyloxy)-",356.75,1,CCCCCOc1ccccc1,0,0,0,0
2-sec-butylaniline,375,1,C(C)(CC)C1=C(N)C=CC=C1,0,0,0,0
"2-Naphthalenol, 1-(2-(2-chloro-4-nitrophenyl)diazenyl)-",564.95,1,O=[N+]([O-])c1ccc(N=Nc2c(O)ccc3ccccc23)c(Cl)c1,0,0,0,0
"1H-1,2,4-triazole",443.15,1,C1=NC=NN1,0,0,0,0
3-(Indol-3-yl)propionic acid,284.85,1,O=C(O)CCc1c[nH]c2ccccc12,0,0,0,1
1-bromotridecane,383.15,1,CCCCCCCCCCCCCBr,0,0,0,0
"Phenol, 2-methoxy-4-(2-propenyl)-",392.95,1,C=CCc1ccc(O)c(OC)c1,0,0,0,0
"Benzene, 2-chloro-1-fluoro-4-nitro-",343.15,1,O=[N+]([O-])c1ccc(F)c(Cl)c1,0,0,0,0
"Dibenzo(c,f)(2,7)naphthyridine",486.05,1,c1ccc2c(c1)ncc1cnc3ccccc3c12,0,0,0,0
"Benzene, 1,2,4-trichloro-3,5-dinitro-",435.95,1,O=[N+]([O-])c1cc(Cl)c(Cl)c([N+](=O)[O-])c1Cl,0,0,0,0
"Urea, (1-ethylcyclopentyl)-",372.35,1,CCC1(NC(N)=O)CCCC1,0,0,0,0
"2,6-dichloronaphthalene",404.85,1,Clc1ccc2cc(Cl)ccc2c1,0,0,0,0
4-methylpyrimidine,313.15,1,Cc1ccncn1,0,0,0,0
"2,2,2-trichloroacetonitrile",347.15,1,C(#N)C(Cl)(Cl)Cl,0,0,0,0
"Naphtho(2,1-f)quinoline",476.35,1,c1ccc2c(c1)ccc1c3cccnc3ccc21,0,0,0,0
"Benzene, 1,3,5-trinitro-",437.25,1,O=[N+]([O-])c1cc([N+](=O)[O-])cc([N+](=O)[O-])c1,0,0,0,0
3-ethyl-2-methylpentan-3-ol,329.75,1,CCC(O)(CC)C(C)C,0,0,0,0
"1,2-diisocyanatonaphthalene",465.15,1,C1=CC=C2C(=C1)C=CC(=C2N=C=O)N=C=O,0,0,0,0
3-AMINOPROPYLDIMETHYLETHOXYSILANE,346.15,1,CCO[Si](C)(C)CCCN,1,1,0,0
"Acetic acid, (p-chlorophenyl)-",404.85,1,O=C(O)Cc1ccc(Cl)cc1,0,0,0,1
allylpropanoate,298,1,C(C=C)OC(CC)=O,0,0,0,0
"Phenol, 3-methyl-2-nitro- (9CI)",380.15,1,Cc1cccc(O)c1[N+](=O)[O-],0,0,0,0
"(1S,3R,5S)-2-methylidene-5-propan-2-ylbicyclo[3.1.0]hexan-3-ol",356.85,1,C=C1[C@H]2C[C@@]2(C(C)C)C[C@H]1O,0,0,0,0
"1,2,3,4,5-pentafluoro-6-methoxybenzene",305.35,1,COc1c(F)c(F)c(F)c(F)c1F,0,0,0,0
(E)-pent-2-en-1-ol,323.75,1,CC/C=C/CO,0,0,0,0
"Phosphoric acid, 2-chloro-1-(2,4-dichlorophenyl)ethenyl dimethyl ester",535.95,1,COP(=O)(OC)OC(=CCl)c1ccc(Cl)cc1Cl,0,0,0,1
(2-methylphenyl) acetate,357.15,1,CC(=O)Oc1ccccc1C,0,0,0,0
2-methyl-2-propenal,258,1,CC(C=O)=C,0,0,0,0
"Acetamide, N-methyl-N-phenyl-",366.35,1,CC(=O)N(C)c1ccccc1,0,0,0,0
but-1-ene;(E)-but-2-ene,375.15,1,CCC=C.CC=CC,0,0,0,0
"1,1-diethoxypropane",286,1,C(C)OC(CC)OCC,0,0,0,0
chloro thiohypochlorite,391.15,1,S(Cl)Cl,0,0,0,0
"Pregn-4-ene-3,20-dione, 17-hydroxy-",533.05,1,CC(=O)[C@@]1(O)CC[C@H]2[C@@H]3CCC4=CC(=O)CC[C@]4(C)[C@H]3CC[C@@]21C,0,0,0,0
"Ethanamine, 2,2'-(1,2-ethanediylbis(oxy))bis(N,N-dimethyl-",337.45,1,CN(C)CCOCCOCCN(C)C,0,0,0,0
"Benzenemethanamine, N-(2-chloroethyl)-N-(phenylmethyl)-",420.45,1,ClCCN(Cc1ccccc1)Cc1ccccc1,0,0,0,0
"Benzoic acid, 4-hydrazinyl-",455.05,1,NNc1ccc(C(=O)O)cc1,0,0,0,1
METHYL t-PENTYL SULFIDE,302,1,CCC(C)(C)SC,0,0,0,0
"9H-Fluorene, 2-nitroso-",428.25,1,O=Nc1ccc2c(c1)Cc1ccccc1-2,0,0,0,0
"2,3-dibromopentane",327.55,1,CCC(Br)C(C)Br,0,0,0,0
"Hydroquinone, 2,5-dichloro- (8CI)",392.65,1,Oc1cc(Cl)c(O)cc1Cl,0,0,0,0
"Benzenamine, 4-(6-methyl-2-benzothiazolyl)-",490.45,1,Cc1ccc2nc(-c3ccc(N)cc3)sc2c1,0,0,0,0
"4-methyl-3,6-dihydro-2H-pyran",287.45,1,CC1=CCOCC1,0,0,0,0
1-pentylpiperidine,351.45,1,CCCCCN1CCCCC1,0,0,0,0
"N,N,2,4,6-pentamethylaniline",352.05,1,Cc1cc(C)c(N(C)C)c(C)c1,0,0,0,0
"Methanol, phosphinidynetri- (7CI,8CI)",415.45,1,OCP(CO)CO,0,0,0,0
"Ethanol, 2-(2-phenoxyethoxy)-",414.05,1,OCCOCCOc1ccccc1,0,0,0,0
2-decyloxirane,317.15,1,CCCCCCCCCCC1CO1,0,0,0,0
"Phthalic acid, butyl cyclohexyl ester (8CI)",457.55,1,CCCCOC(=O)c1ccccc1C(=O)OC1CCCCC1,0,0,0,1
(3E)-3-octene,282,1,CCCC/C=C/CC,0,0,0,0
1-fluoro-2-(trifluoromethyl)benzene,290.15,1,Fc1ccccc1C(F)(F)F,0,0,0,0
"hexane-2,4-dione",326.75,1,CCC(=O)CC(C)=O,0,0,0,0
1-chloro-2-propan-2-ylbenzene,344.15,1,CC(C)c1ccccc1Cl,0,0,0,0
"Benzoic acid, 2-nitro-",430.65,1,O=C(O)c1ccccc1[N+](=O)[O-],0,0,0,1
"Benzo(b)naphtho(1,2-d)thiophene",436.15,1,c1ccc2c(c1)ccc1sc3ccccc3c12,0,0,0,0
"Quinoline, 8-nitro-",422.35,1,O=[N+]([O-])c1cccc2cccnc12,0,0,0,0
"2-Benzothiazolesulfenamide, N-cyclohexyl-",475.15,1,c1ccc2sc(SNC3CCCCC3)nc2c1,0,0,0,0
butan-2-yl propanoate,306.55,1,CCC(=O)OC(C)CC,0,0,0,0
"Propanoic acid, 2-methyl-, 4-methylphenyl ester",366.95,1,Cc1ccc(OC(=O)C(C)C)cc1,0,0,0,1
"Aziridine, 1,1'-(1,3-phenylenedicarbonyl)bis(2-methyl-",484.05,1,CC1CN1C(=O)c1cccc(C(=O)N2CC2C)c1,0,0,0,0
"bis(2-ethylhexyl) benzene-1,2-dicarboxylate",480.15,1,CCCCC(CC)COC(=O)C1=CC=CC=C1C(=O)OCC(CC)CCCC,0,0,0,0
indane,322,1,c1ccc2CCCc2c1,0,0,0,0
dibutyl carbonate,349.15,1,CCCCOC(=O)OCCCC,0,0,0,0
phenylphosphane,244.25,1,Pc1ccccc1,0,0,0,0
"9,10-Anthracenedione, 1,3-dihydroxy-2-methyl-",559.75,1,Cc1c(O)cc2c(c1O)C(=O)c1ccccc1C2=O,0,0,0,0
"Benzonitrile, 2-methyl-",358.15,1,Cc1ccccc1C#N,0,0,0,0
"1,2-dichloro-2-fluoropropane",276.75,1,CC(F)(Cl)CCl,0,0,0,0
"Formamide, N,N-di-n-butyl-",373.15,1,CCCCN(C=O)CCCC,0,0,0,0
6-hydroxyhexan-2-one,365.35,1,CC(=O)CCCCO,0,0,0,0
1-ethenoxyhexane,282.95,1,C=COCCCCCC,0,0,0,0
N-METHYLACETAMIDE,381.1,1,CNC(C)=O,0,0,0,0
"3,4-dimethylhexane",279,1,CC(CC)C(CC)C,0,0,0,0
"Butanamide, 2-chloro-N,N-dimethyl-3-oxo-",362.15,1,CC(=O)C(Cl)C(=O)N(C)C,0,0,0,0
"Pyridine, 2-chloro-6-(trichloromethyl)-",408.05,1,Clc1cccc(C(Cl)(Cl)Cl)n1,0,0,0,0
"2,5-dimethyl-1H-imidazole",415.45,1,Cc1cnc(C)[nH]1,0,0,0,0
1-methyl-2-(2-methylphenoxy)benzene,387.45,1,Cc1ccccc1Oc1ccccc1C,0,0,0,0
"3-Pyridinecarboxylic acid, 1,2,5,6-tetrahydro-1-methyl-, methyl ester",354.25,1,COC(=O)C1=CCCN(C)C1,0,0,0,1
"Benzimidazole-5-carbonitrile, 2-(trifluoromethyl)-",439.65,1,N#Cc1ccc2nc(C(F)(F)F)[nH]c2c1,0,0,0,0
"Quinoline, 4-fluoro-",371.15,1,Fc1ccnc2ccccc12,0,0,0,0
"p-Anisaldehyde, 3-hydroxy- (8CI)",393.05,1,COc1ccc(C=O)cc1O,0,0,0,0
morpholine,304,1,N1CCOCC1,0,0,0,0
"2,2-dimethyl-1-phenylpropan-1-one",359.15,1,CC(C)(C)C(=O)c1ccccc1,0,0,0,0
"Phenol, 2,3,4,6-tetrachloro-",388.85,1,Oc1c(Cl)cc(Cl)c(Cl)c1Cl,0,0,0,0
"Urea, N'-(3,4-dichlorophenyl)-N-methoxy-N-methyl-",284.15,1,CON(C)C(=O)Nc1ccc(Cl)c(Cl)c1,0,0,0,0
"Benzene, 1,2,4-trichloro-5-((4-chlorophenyl)thio)-",459.05,1,Clc1ccc(Sc2cc(Cl)c(Cl)cc2Cl)cc1,0,0,0,0
"1-Propene, 1,2,3-trichloro-",338.65,1,ClC=C(Cl)CCl,0,0,0,0
"1,2-dibromobutane",317.15,1,CCC(Br)CBr,0,0,0,0
"1,1,1-trichloro-2,2,3,3,3-pentafluoropropane",276.15,1,FC(F)(F)C(F)(F)C(Cl)(Cl)Cl,0,0,0,0
"Benzene, 1-bromo-4-chloro-",351.55,1,Clc1ccc(Br)cc1,0,0,0,0
1-isothiocyanato-4-methoxybenzene,392.65,1,COc1ccc(N=C=S)cc1,0,0,0,0
"1-Propanol, 3-phenyl-, formate",374.55,1,O=COCCCc1ccccc1,0,0,0,0
"propan-2-yl 2,2-dichloroacetate",333.25,1,CC(C)OC(=O)C(Cl)Cl,0,0,0,0
"2,3-dibromopropyl 2-methylprop-2-enoate",332.15,1,CC(=C)C(=O)OCC(CBr)Br,0,0,0,0
"2-Tetrazene, 1,1,4,4-tetramethyl-",535.55,1,CN(C)N=NN(C)C,0,0,0,0
"Oxetane, 3-(chloromethyl)-3-methyl-",316.05,1,CC1(CCl)COC1,0,0,0,0
2-ethenyloxirane,227.15,1,C=CC1CO1,0,0,0,0
1-cyclohexylbutylcyclohexane,399.25,1,CCCC(C1CCCCC1)C1CCCCC1,0,0,0,0
"Benzene, 1,3,5-tris(1,1-dimethylethyl)-",372.25,1,CC(C)(C)c1cc(C(C)(C)C)cc(C(C)(C)C)c1,0,0,0,0
2-(4-methylphenyl)acetaldehyde,375.25,1,Cc1ccc(CC=O)cc1,0,0,0,0
o-xylene,303,1,C=1(C(=CC=CC1)C)C,0,0,0,0
"7,14-Methano-2H,6H-dipyrido(1,2-a:1',2'-e)(1,5)diazocine, dodecahydro-",421.45,1,C1CCN2CC3CC(CN4CCCCC34)C2C1,0,0,0,0
"1-Naphthylamine, 5,8-dichloro-",448.35,1,Nc1cccc2c(Cl)ccc(Cl)c12,0,0,0,0
"2,6-Octadien-1-ol, 3,7-dimethyl-, propanoate, (2Z)-",370.85,1,CCC(=O)OC/C=C(/C)CCC=C(C)C,0,0,0,0
4-(dimethylamino)benzonitrile,418.55,1,CN(C)c1ccc(C#N)cc1,0,0,0,0
4-pentylphenol,406.15,1,CCCCCc1ccc(O)cc1,0,0,0,0
5-methyl-1-hexene,263,1,CC(CCC=C)C,0,0,0,0
N-ethylnaphthalen-2-amine,430.15,1,CCNc1ccc2ccccc2c1,0,0,0,0
"Ethanol, 2,2,2-trichloro-1-ethoxy-",322.05,1,CCOC(O)C(Cl)(Cl)Cl,0,0,0,0
"Butanoic acid, 4-(diethylamino)-4-oxo-, propyl ester (9CI)",415.95,1,CCCOC(=O)CCC(=O)N(CC)CC,0,0,0,1
benzoic acid [4-[(oxo-phenylmethoxy)methyl]cyclohexyl]methyl ester,434.15,1,O=C(OCC1CCC(COC(=O)c2ccccc2)CC1)c1ccccc1,0,0,0,1
"1,4-Benzenedicarbonitrile",415.95,1,N#Cc1ccc(C#N)cc1,0,0,0,0
"Benzenamine, 4-(1-methylethoxy)-N-phenyl-",420.55,1,CC(C)Oc1ccc(Nc2ccccc2)cc1,0,0,0,0
"Benzoic acid, 3-(acetylamino)-5-(acetylmethylamino)-2,4,6-triiodo-",637.45,1,CC(=O)CNc1c(I)c(NC(C)=O)c(I)c(C(=O)O)c1I,0,0,0,1
"Isocyanic acid, (m-trifluoromethylphenyl) ester",331.15,1,O=C=Nc1cccc(C(F)(F)F)c1,0,0,0,1
"2H-1,2,4-Benzothiadiazine-7-sulfonamide, 6-chloro-, 1,1-dioxide",595.15,1,NS(=O)(=O)c1cc2c(cc1Cl)N=CNS2(=O)=O,0,0,0,0
pentanoyl pentanoate,374.25,1,CCCCC(=O)OC(=O)CCCC,0,0,0,0
tert-pentylacetate,298,1,C(C)(C)(CC)OC(C)=O,0,0,0,0
"Pyrene, 1-methyl-",452.05,1,Cc1ccc2ccc3cccc4ccc1c2c34,0,0,0,0
dichloro(ethyl)phosphane,305.95,1,CCP(Cl)Cl,0,0,0,0
"1,3-dimethoxy-5-methylbenzene",374.85,1,COc1cc(C)cc(OC)c1,0,0,0,0
S-Dichlorovinyl-N-acetylcysteine,516.35,1,CC(=O)N[C@@H](CSC=C(Cl)Cl)C(=O)O,0,0,0,0