compound,flashpoint,pure substance,smiles,is_silicon,is_metallic,is_tin,is_acid
"Benzene, 1,1'-oxybis(4-fluoro- (9CI)",384.05,1,Fc1ccc(Oc2ccc(F)cc2)cc1,0,0,0,0
"Toluene, alpha,alpha,alpha-trifluoro-m-nitro- (8CI)",360.15,1,O=[N+]([O-])c1cccc(C(F)(F)F)c1,0,0,0,0
4-methyldecane,322.55,1,CCCCCCC(C)CCC,0,0,0,0
ethyl dihydrogen phosphate,389.15,1,CCOP(=O)(O)O,0,0,0,0
"Hexanoic acid, 2-propenyl ester",347.15,1,C=CCOC(=O)CCCCC,0,0,0,1
"Propanoic acid, 2-bromo-2-methyl-, ethyl ester",333.15,1,CCOC(=O)C(C)(C)Br,0,0,0,1
"Oxetane, 3,3-bis(chloromethyl)-",388.95,1,ClCC1(CCl)COC1,0,0,0,0
"Benzeneacetic acid, alpha-cyclohexyl-alpha-hydroxy- (9CI)",488.25,1,O=C(O)C(O)(c1ccccc1)C1CCCCC1,0,0,0,1
"Benzene, 1-iodo-3-nitro-",344.85,1,O=[N+]([O-])c1cccc(I)c1,0,0,0,0
methyl 3-sulfanylpropanoate,333.15,1,COC(=O)CCS,0,0,0,0
hexan-2-one,296.15,1,CCCCC(=O)C,0,0,0,0
"2,5-dimethoxy-2,5-dihydrofuran",320,1,COC1OC(C=C1)OC,0,0,0,0
"2-Propynylamine, 1,1-dimethyl- (6CI,7CI,8CI)",275.15,1,C#CC(C)(C)N,0,0,0,0
"Pyrazinecarboxamide, 3,5-diamino-N-(aminoiminomethyl)-6-chloro-",606.85,1,NN=CNC(=O)c1nc(Cl)c(N)nc1N,0,0,0,0
"3,7-dimethylocta-1,6-dien-3-yl acetate",367.15,1,CC(=CCCC(C)(C=C)OC(=O)C)C,0,0,0,0
"Piperazine, 2-methyl-",318.25,1,CC1CNCCN1,0,0,0,0
"7H-Furo(3,2-g)(1)benzopyran-7-one, 4,9-dimethoxy- (8CI)(9CI)",498.25,1,COc1c2ccoc2c(OC)c2oc(=O)ccc12,0,0,0,0
triethyl arsorite,322.55,1,CCO[As](OCC)OCC,0,1,0,0
"benzene-1,4-diamine",428.15,1,C1=CC(=CC=C1N)N,0,0,0,0
3-pentanamine,275,1,CCC(CC)N,0,0,0,0
7-methyl-1-octene,291,1,CC(CCCCC=C)C,0,0,0,0
chloro(dimethyl)arsane,299.05,1,C[As](C)Cl,0,1,0,0
"1,3,5-Benzenetriol",448.05,1,Oc1cc(O)cc(O)c1,0,0,0,0
"Phosphonic acid, methyl-, bis(1-methylethyl) ester",370.85,1,CC(C)OP(C)(=O)OC(C)C,0,0,0,1
"Acetic acid, naphthyloxy-, methyl ester",413.85,1,COC(=O)COc1cccc2ccccc12,0,0,0,1
"1,3-dichloro-5-(3-chlorophenyl)benzene",414.15,1,C1=CC(=CC(=C1)Cl)C2=CC(=CC(=C2)Cl)Cl,0,0,0,0
1-methyl-1-phenylhydrazine,366.75,1,CN(N)c1ccccc1,0,0,0,0
(E)-2-bromobut-2-ene,274.25,1,C/C=C(\C)Br,0,0,0,0
2-Bromooctanoic acid,397.15,1,CCCCCCC(Br)C(=O)O,0,0,0,1
2-Methylenehexanal,306.45,1,C=C(C=O)CCCC,0,0,0,0
4-thiapentanal,334,1,C(CCSC)=O,0,0,0,0
furan-2-ylmethanamine,310.15,1,C1=COC(=C1)CN,0,0,0,0
2-(2-hydroxyethylsulfanyl)ethanol,386.15,1,C(CSCCO)O,0,0,0,0
"methyl 2,2,3,3,3-pentafluoropropanoate",278.75,1,COC(=O)C(F)(F)C(F)(F)F,0,0,0,0
"1,1,1,2,2,3,3,4,4,5,5,6,6,7,7,7-hexadecafluoroheptane",289.85,1,FC(F)(F)C(F)(F)C(F)(F)C(F)(F)C(F)(F)C(F)(F)C(F)(F)F,0,0,0,0
"1,2-dimethoxy-4-prop-2-enylbenzene",372.15,1,COC1=C(C=C(C=C1)CC=C)OC,0,0,0,0
pyridin-3-amine,463.15,1,C1=CC(=CN=C1)N,0,0,0,0
7-Quinolinamine (9CI),449.25,1,Nc1ccc2cccnc2c1,0,0,0,0
"m-Toluidine, 6-chloro-alpha,alpha,alpha-trifluoro-",352.75,1,Nc1cc(C(F)(F)F)ccc1Cl,0,0,0,0
"Phosphorothioic acid, O,O-diethyl S-((ethylsulfinyl)methyl) ester",453.45,1,CCOP(=O)(OCC)SCS(=O)CC,0,0,0,1
ethyl (2E)-oct-2-enoate,371,1,CCCCC/C=C/C(=O)OCC,0,0,0,0
"3,3,3-trichloroprop-1-ene",310.85,1,C=CC(Cl)(Cl)Cl,0,0,0,0
"Benzenamine, N-methyl-N,2,4,6-tetranitro-",531.55,1,CN(c1c([N+](=O)[O-])cc([N+](=O)[O-])cc1[N+](=O)[O-])[N+](=O)[O-],0,0,0,0
1-nitro-4-phenylbenzene,416.15,1,C1=CC=C(C=C1)C2=CC=C(C=C2)[N+](=O)[O-],0,0,0,0
2-phenylpropanoic acid,421.15,1,CC(C(=O)O)c1ccccc1,0,0,0,1
cyclodecylacetate,379,1,C1(CCCCCCCCC1)CC(=O)[O-],0,0,0,0
"3,3-dimethylhexan-2-one",307.55,1,CCCC(C)(C)C(C)=O,0,0,0,0
"Decane, 1,10-dibromo-",426.55,1,BrCCCCCCCCCCBr,0,0,0,0
6H-Benzo(cd)pyren-6-one,503.75,1,O=c1c2cccc3ccc4ccc5cccc1c5c4c32,0,0,0,0
ethoxy(triphenyl)silane,436.65,1,CCO[Si](c1ccccc1)(c1ccccc1)c1ccccc1,1,1,0,0
"(2,4-dimethylpentyl)benzene",360.1,1,CC(C)CC(C)Cc1ccccc1,0,0,0,0
heptadecan-9-one,356.75,1,CCCCCCCCC(=O)CCCCCCCC,0,0,0,0
2-isothiocyanato-2-methylpropane,311.45,1,CC(C)(C)N=C=S,0,0,0,0
"Benzo(a)pyrene, 12-methyl-",509.85,1,Cc1cc2c3ccccc3cc3ccc4cccc1c4c32,0,0,0,0
butyl-chloro-dimethylsilane,303.25,1,CCCC[Si](C)(C)Cl,1,1,0,0
"Benzaldehyde, 2,3-dichloro-",372.35,1,O=Cc1cccc(Cl)c1Cl,0,0,0,0
"methyl 2,2,2-trichloroacetate",345.15,1,COC(=O)C(Cl)(Cl)Cl,0,0,0,0
"3,3-diethoxyprop-1-yne",305.35,1,C#CC(OCC)OCC,0,0,0,0
"5,8,11,14,17-Pentaoxaheneicosane",410.35,1,CCCCOCCOCCOCCOCCOCCCC,0,0,0,0
isopentylbenzene,335,1,C(CC(C)C)C1=CC=CC=C1,0,0,0,0
"2-Propen-1-one, 1-(4-nitrophenyl)-3-phenyl- (9CI)",488.05,1,O=C(C=Cc1ccccc1)c1ccc([N+](=O)[O-])cc1,0,0,0,0
1-methyl-3-propan-2-ylcyclohexane,317.85,1,CC1CCCC(C(C)C)C1,0,0,0,0
2-methyl-5-propan-2-ylbicyclo[3.1.0]hex-2-ene,306.75,1,CC1=CCC2(C(C)C)CC12,0,0,0,0
"Phosphoric acid, bis(2-chloroethyl) 4-nitrophenyl ester (9CI)",482.95,1,O=[N+]([O-])c1ccc(OP(=O)(OCCCl)OCCCl)cc1,0,0,0,1
"1H-Pyrido(3,4-b)indole-3-carboxylic acid, 2,3,4,9-tetrahydro-1-methyl-",522.05,1,CC1NC(C(=O)O)Cc2c1[nH]c1ccccc21,0,0,0,1
p-Methoxynitrosobenzene,384.15,1,COc1ccc(N=O)cc1,0,0,0,0
"1H-Imidazole, 2,4,5-triiodo- (9CI)",504.65,1,Ic1nc(I)c(I)[nH]1,0,0,0,0
"Quinoline, 3-fluoro-",371.15,1,Fc1cnc2ccccc2c1,0,0,0,0
"Chrysene, 2-nitro-",531.95,1,O=[N+]([O-])c1ccc2c(ccc3c4ccccc4ccc23)c1,0,0,0,0
"Benzenemethanol, 4-ethyl-",377.55,1,CCc1ccc(CO)cc1,0,0,0,0
"Benzimidazole, 6-bromo-4-nitro-2-(trifluoromethyl)-",470.85,1,O=[N+]([O-])c1cc(Br)cc2nc(C(F)(F)F)[nH]c12,0,0,0,0
2-picoline,299,1,N1=C(C=CC=C1)C,0,0,0,0
"Glutamic acid, N-acetyl- (6CI,7CI)",526.85,1,CC(=O)N[C@@H](CCC(=O)O)C(=O)O,0,0,0,1
"1,1,3-trimethylcyclopentane",279.55,1,CC1CCC(C)(C)C1,0,0,0,0
octyl ethanoate,359,1,CCCCCCCCOC(=O)C,0,0,0,0
diisobutylamine,303,1,C(C(C)C)NCC(C)C,0,0,0,0
"2,3-bis[[(Z)-12-hydroxyoctadec-9-enoyl]oxy]propyl (Z)-12-hydroxyoctadec-9-enoate",502.15,1,CCCCCCC(CC=CCCCCCCCC(=O)OCC(COC(=O)CCCCCCCC=CCC(CCCCCC)O)OC(=O)CCCCCCCC=CCC(CCCCCC)O)O,0,0,0,0
N-(4-methylphenyl)-1-phenylmethanimine,418.151,1,Cc1ccc(N=Cc2ccccc2)cc1,0,0,0,0
"Bicyclo(3.1.1)hept-2-ene-2-carboxaldehyde, 6,6-dimethyl-",352.05,1,CC1(C)C2CC=C(C=O)C1C2,0,0,0,0
"Propionitrile, 3-ethoxy- (8CI)",337.05,1,CCOCCC#N,0,0,0,0
1-methyl-4-prop-1-en-2-ylbenzene,332.55,1,C=C(C)c1ccc(C)cc1,0,0,0,0
"2-Propanol, 1,1',1''-nitrilotris-",440.15,1,CC(O)CN(CC(C)O)CC(C)O,0,0,0,0
"Butanamide, 2-chloro-N-methyl-3-oxo-",398.75,1,CNC(=O)C(Cl)C(C)=O,0,0,0,0
"3,3,5-trimethylheptane",304,1,CC(CC)(CC(CC)C)C,0,0,0,0
isopentylformate,295,1,C(CC(C)C)OC=O,0,0,0,0
octyl hexanoate,393.15,1,CCCCCCCCOC(=O)CCCCC,0,0,0,0
4-ISOBUTYLSTYRENE,373,1,C=Cc1ccc(CC(C)C)cc1,0,0,0,0
"Diazene, bis(2-methyl-3-nitrophenyl)-, 1-oxide",535.05,1,Cc1c(N=[N+]([O-])c2cccc([N+](=O)[O-])c2C)cccc1[N+](=O)[O-],0,0,0,0
DIPROPYL MALEATE,391,1,CCCOC(=O)/C=C\C(=O)OCCC,0,0,0,0
"Oxirane, 2,3-diphenyl-, cis- (9CI)",382.15,1,c1ccc([C@@H]2O[C@@H]2c2ccccc2)cc1,0,0,0,0
2-decanone,358,1,CC(CCCCCCCC)=O,0,0,0,0
3-phenylpropan-1-ol,485.15,1,C1=CC=C(C=C1)CCCO,0,0,0,0
"Isothiocyanic acid, 1-naphthyl ester",440.35,1,S=C=Nc1cccc2ccccc12,0,0,0,1
"7-methyl-3-methylideneocta-1,6-diene",312.15,1,CC(=CCCC(=C)C=C)C,0,0,0,0
"3,3-dimethyloctane",314,1,CC(CC)(CCCCC)C,0,0,0,0
dichloromethylbenzene,365.15,1,C1=CC=C(C=C1)C(Cl)Cl,0,0,0,0
"4-Pyridinol, 2,3,5-trichloro-",372.95,1,Oc1c(Cl)cnc(Cl)c1Cl,0,0,0,0
2-phenylethynylbenzene,399.193,1,C(#Cc1ccccc1)c1ccccc1,0,0,0,0
"N,N-dimethylbenzamide",385.05,1,CN(C)C(=O)c1ccccc1,0,0,0,0
"Hexanoic acid, butyl ester",354.25,1,CCCCCC(=O)OCCCC,0,0,0,1
ethyl N-butylcarbamate,350.65,1,CCCCNC(=O)OCC,0,0,0,0
2-methylcyclopentan-1-one,305.85,1,CC1CCCC1=O,0,0,0,0
Benzenecarbothioamide,393.15,1,NC(=S)c1ccccc1,0,0,0,0
2-methylsulfanylaniline,368.95,1,CSc1ccccc1N,0,0,0,0
"Propiophenone, 2',4',6'-trihydroxy-3-(p-hydroxyphenyl)- (8CI)",564.25,1,O=C(CCc1ccc(O)cc1)c1c(O)cc(O)cc1O,0,0,0,0
"2H-1,3,5-Thiadiazine-2-thione, tetrahydro-3,5-dimethyl-",361.35,1,CN1CSC(=S)N(C)C1,0,0,0,0
"3-ethyl-2,5-dimethylpyrazine",342.55,1,CCc1nc(C)cnc1C,0,0,0,0
"Benzenemethanol, alpha-ethynyl-alpha-methyl-",369.15,1,C#CC(C)(O)c1ccccc1,0,0,0,0
"1,2-Propanediol, 3-(2-methylphenoxy)-, 1-carbamate (9CI)",505.95,1,Cc1ccccc1OCC(O)COC(N)=O,0,0,0,0
"Phosphoric acid, tris(2-methylpropyl) ester",398.95,1,CC(C)COP(=O)(OCC(C)C)OCC(C)C,0,0,0,1
"Phosphorodichloridothioic acid, methyl ester",323.05,1,COP(=S)(Cl)Cl,0,0,0,1
3-(trifluoromethyl)benzoyl chloride,348.65,1,O=C(Cl)c1cccc(C(F)(F)F)c1,0,0,0,0
"1-Pentyn-3-ol, 3,4-dimethyl-",310.35,1,C#CC(C)(O)C(C)C,0,0,0,0
"2,2-dimethyloctane",304,1,CC(C)(CCCCCC)C,0,0,0,0
1-NONADECENE,430,1,C=CCCCCCCCCCCCCCCCCC,0,0,0,0
"9,10-Anthracenedione, 1,8-dihydroxy-",514.85,1,O=C1c2cccc(O)c2C(=O)c2c(O)cccc21,0,0,0,0
"N,N,3-trimethylaniline",354.15,1,Cc1cccc(N(C)C)c1,0,0,0,0
3-Penten-2-one,343.15,1,CC=CC(C)=O,0,0,0,0
"1H-Indene-1,3(2H)-dione, 2-phenyl-",481.15,1,O=C1c2ccccc2C(=O)C1c1ccccc1,0,0,0,0
"Bicyclo(2.2.1)hept-5-ene, 2-(4-cyclohexenyl)-",352.95,1,C1=CCC(C2CC3C=CC2C3)CC1,0,0,0,0
"Oxirane, (phenylmethyl)- (9CI)",354.85,1,c1ccc(CC2CO2)cc1,0,0,0,0
"1,1'-Biphenyl, 3-bromo-",408.75,1,Brc1cccc(-c2ccccc2)c1,0,0,0,0
"Butanamide, N-(2-methylphenyl)-3-oxo-",416.15,1,CC(=O)CC(=O)Nc1ccccc1C,0,0,0,0
1-hydroxypropan-2-yl 2-methylprop-2-enoate,394.15,1,CC(CO)OC(=O)C(=C)C,0,0,0,0
"Quinoline, 8-methyl-",377.15,1,Cc1cccc2cccnc12,0,0,0,0
1-bromo-3-iodobenzene,378.45,1,Brc1cccc(I)c1,0,0,0,0
"trans-1,4-DIETHYLCYCLOHEXANE",320,1,CC[C@H]1CC[C@H](CC)CC1,0,0,0,0
"Quino(2,3-b)acridine-7,14-dione, 5,12-dihydro-",494.45,1,O=c1c2ccccc2[nH]c2cc3c(=O)c4ccccc4[nH]c3cc12,0,0,0,0
"4,6-Dihydro-4-hydroxy-2H-furo(3,2-c)pyran-2-one",499.95,1,O=C1C=C2C(=CCOC2O)O1,0,0,0,0
"5H-Furo(3,2-g)(1)benzopyran-5-one, 4-methoxy-7-methyl-",455.65,1,COc1c2ccoc2cc2oc(C)cc(=O)c12,0,0,0,0
4-nonylphenol,386.15,1,CCCCCCCCCC1=CC=C(C=C1)O,0,0,0,0
"m-Toluidine, N-methyl- (8CI)",350.45,1,CNc1cccc(C)c1,0,0,0,0
"cyclohepta-1,3-diene",284.25,1,C1=CCCCC=C1,0,0,0,0
"8-Quinolinol, 5,7-dichloro-2-methyl-",439.05,1,Cc1ccc2c(Cl)cc(Cl)c(O)c2n1,0,0,0,0
m-Anisonitrile (8CI),378.15,1,COc1cccc(C#N)c1,0,0,0,0
Indole-3-acetic acid (8CI),477.95,1,O=C(O)Cc1c[nH]c2ccccc12,0,0,0,1
"Pentanoic acid, 4-oxo-, ethyl ester",351.05,1,CCOC(=O)CCC(C)=O,0,0,0,1
ethylcyclopentane,269,1,C(C)C1CCCC1,0,0,0,0
"Dibenz(a,j)acridine, 7-oxide",572.85,1,[O-][n+]1c2ccc3ccccc3c2cc2c3ccccc3ccc21,0,0,0,0
"Benzene, 1,2-dimethoxy-4-(2-propenyl)-",390.15,1,C=CCc1ccc(OC)c(OC)c1,0,0,0,0
"Phenol, 4-methyl-2-nitro-",381.15,1,Cc1ccc(O)c([N+](=O)[O-])c1,0,0,0,0
2-fluorotoluene,285,1,FC1=C(C)C=CC=C1,0,0,0,0
3-Nitro-5-fluoro-1-iodobenzene,394.85,1,O=[N+]([O-])c1cc(F)cc(I)c1,0,0,0,0
"2-Propenoic acid, 3-phenyl-, 1-ethenyl-1,5-dimethyl-4-hexenyl ester",489.25,1,C=CC(C)(CCC=C(C)C)OC(=O)C=Cc1ccccc1,0,0,0,1
1-isothiocyanato-2-methylpropane,317.35,1,CC(C)CN=C=S,0,0,0,0
(AZIDOMETHYL)TRIMETHYLSILANE,279.15,1,C[Si](C)(C)CN=[N+]=[N-],1,1,0,0
"2,3,3,4-tetramethylhexane",304,1,CC(C)C(C(CC)C)(C)C,0,0,0,0
"Acetonitrile, chloro-",320.95,1,N#CCCl,0,0,0,0
"2,3-dimethylbut-2-ene",257,1,CC(=C(C)C)C,0,0,0,0
1-methoxy-3-(3-methoxyphenyl)benzene,402.95,1,COc1cccc(-c2cccc(OC)c2)c1,0,0,0,0
2-bromo-5-methylthiophene,333.75,1,Cc1ccc(Br)s1,0,0,0,0
"alpha,alpha,alpha-Trifluoro-2-toluonitrile",363.15,1,N#Cc1ccccc1C(F)(F)F,0,0,0,0
4-phenylbutan-2-ol,383.15,1,CC(O)CCc1ccccc1,0,0,0,0
allylbutanoate,315,1,C(C=C)OC(CCC)=O,0,0,0,0
isopentylbutanoate,332,1,C(CC(C)C)OC(CCC)=O,0,0,0,0
"cis-1,3-PENTADIENE",232,1,C=C/C=C\C,0,0,0,0
"Benzenesulfonamide, 4-amino-N-2-pyridinyl-",513.35,1,Nc1ccc(S(=O)(=O)Nc2ccccn2)cc1,0,0,0,0
2-bromoethanol,314.15,1,C(CBr)O,0,0,0,0
3-(N-ALLYLAMINO)PROPYLTRIMETHOXYSILANE,361.15,1,C=CCNCCC[Si](OC)(OC)OC,1,1,0,0
"Phenol, 2,2'-methylenebis(4-chloro-",480.15,1,Oc1ccc(Cl)cc1Cc1cc(Cl)ccc1O,0,0,0,0
"Benzenamine, N-(1-ethylpropyl)-3,4-dimethyl-2,6-dinitro- (9CI)",481.55,1,CCC(CC)Nc1c([N+](=O)[O-])cc(C)c(C)c1[N+](=O)[O-],0,0,0,0
"3-Buten-2-one, 4-(p-methoxyphenyl)- (8CI)",421.45,1,COc1ccc(C=CC(C)=O)cc1,0,0,0,0
"Cyclohexylamine, N-benzylidene- (6CI,7CI,8CI)",397.613,1,C(=NC1CCCCC1)c1ccccc1,0,0,0,0
2-hydroxy-4-methylbenzaldehyde,361.15,1,Cc1ccc(C=O)c(O)c1,0,0,0,0
MALEONITRILE,389,1,N#C/C=C\C#N,0,0,0,0
"Cholesterol, (p-(bis(2-chloroethyl)amino)phenyl)acetate (8CI)",642.35,1,CC(C)CCC[C@@H](C)[C@H]1CC[C@H]2[C@@H]3CC=C4C[C@@H](OC(=O)Cc5ccc(N(CCCl)CCCl)cc5)CC[C@]4(C)[C@H]3CC[C@@]21C,0,0,0,0
"hepta-1,6-dien-4-ol",313.15,1,C=CCC(O)CC=C,0,0,0,0
"2-Piperidinemethanol, alpha,alpha-diphenyl-",400.55,1,OC(c1ccccc1)(c1ccccc1)C1CCCCN1,0,0,0,0
Quinoxaline,371.15,1,c1ccc2nccnc2c1,0,0,0,0
TRIMETHYLCHLOROGERMANE,274.15,1,C[Ge](C)(C)Cl,0,1,0,0
3-methylbutane-1-thiol,291.45,1,CC(C)CCS,0,0,0,0
"1,2-Benzenedicarboxaldehyde",371.65,1,O=Cc1ccccc1C=O,0,0,0,0
"N,N-diethylformamide",338,1,C(C)N(C=O)CC,0,0,0,0
2-(4-methoxyphenyl)acetonitrile,385.15,1,COc1ccc(CC#N)cc1,0,0,0,0
"Benzeneacetaldehyde, alpha-oxo- (9CI)",342.95,1,O=CC(=O)c1ccccc1,0,0,0,0
"Benz(a)anthracene, 5,6-epoxy-5,6-dihydro-7-methyl-",492.25,1,Cc1c2c(cc3ccccc13)-c1ccccc1C1OC21,0,0,0,0
"heptane-1,7-diol",394.05,1,OCCCCCCCO,0,0,0,0
"4,4-dimethyloctane",314.95,1,CCCCC(C)(C)CCC,0,0,0,0
(2Z)-oct-2-ene,294,1,CCCCC/C=C\C,0,0,0,0
nonan-5-ol,352.65,1,CCCCC(O)CCCC,0,0,0,0
3-chlorotoluene,323,1,Cc1cccc(Cl)c1,0,0,0,0
pentyl heptanoate,372.15,1,CCCCCCC(=O)OCCCCC,0,0,0,0
"Thiophene, tetrahydro-2,4-dimethyl-, 1,1-dioxide",418.75,1,CC1CC(C)S(=O)(=O)C1,0,0,0,0
1-amino-3-(diethylamino)propan-2-ol,361.85,1,CCN(CC)CC(O)CN,0,0,0,0
"Aniline, m-bromo- (8CI)",374.35,1,Nc1cccc(Br)c1,0,0,0,0
"Benzimidazole, 4,7-dibromo-2-(trifluoromethyl)-",452.95,1,FC(F)(F)c1nc2c(Br)ccc(Br)c2[nH]1,0,0,0,0
cumene,309.15,1,CC(C)C1=CC=CC=C1,0,0,0,0
"Phosphonothioic acid, ethyl-, O-ethyl ester",354.05,1,CCOP([O-])(=S)CC,0,0,0,1
"3,5-dimethyl-1,3,5-thiadiazinane-2-thione",366.15,1,CN1CN(C(=S)SC1)C,0,0,0,0
1-chloro-4-isothiocyanatobenzene,378.25,1,S=C=Nc1ccc(Cl)cc1,0,0,0,0
"Ethanamine, 2-chloro-N-(2-chloroethyl)- (9CI)",350.45,1,ClCCNCCCl,0,0,0,0
"Benzene, 1-methoxy-2-nitro-",415.15,1,COc1ccccc1[N+](=O)[O-],0,0,0,0
alpha-methoxy-alpha-phenylacetic acid,389.25,1,COC(C(=O)O)c1ccccc1,0,0,0,1
heptadecanenitrile,410.65,1,CCCCCCCCCCCCCCCCC#N,0,0,0,0
thiacyclohexane,294,1,S1CCCCC1,0,0,0,0
"3,4-dichlorobenzoyl chloride",415.15,1,O=C(Cl)c1ccc(Cl)c(Cl)c1,0,0,0,0
"N,N-dimethylpropan-2-amine",264.15,1,CC(C)N(C)C,0,0,0,0
4-methyl-1-heptene,275,1,CC(CC=C)CCC,0,0,0,0
"1-Propene, 1,3,3,3-tetrafluoro-1-methoxy-2-(trifluoromethyl)- (9CI)",287.75,1,COC(F)=C(C(F)(F)F)C(F)(F)F,0,0,0,0
"3,7-dimethylocta-1,6-dien-3-ol",351.15,1,CC(=CCCC(C)(C=C)O)C,0,0,0,0
"1-Propanol, 3-(1-methylethoxy)- (9CI)",328.35,1,CC(C)OCCCO,0,0,0,0
"Propanedioic acid, butyl-, diethyl ester",366.15,1,CCCCC(C(=O)OCC)C(=O)OCC,0,0,0,1
"Anthraquinone, 1,3,8-trihydroxy-6-methyl- (8CI)",595.95,1,Cc1cc(O)c2c(c1)C(=O)c1cc(O)cc(O)c1C2=O,0,0,0,0
"4-chlorobuta-1,2-diene",273.65,1,C=C=CCCl,0,0,0,0
cyclohex-3-ene-1-carbaldehyde,330.15,1,C1CC(CC=C1)C=O,0,0,0,0
2-tert-butylcyclohexanone,345,1,C(C)(C)(C)C1C(CCCC1)=O,0,0,0,0
"2H-1-Benzopyran-2-one, 7-hydroxy-6-methoxy- (9CI)",445.55,1,COc1cc2ccc(=O)oc2cc1O,0,0,0,0
"2,4-Imidazolidinedione, 1,3-dichloro-5,5-dimethyl-",356.85,1,CC1(C)C(=O)N(Cl)C(=O)N1Cl,0,0,0,0
"2-Propenoic acid, 2-methyl-, 2-phenylethyl ester",430.65,1,C=C(C)C(=O)OCCc1ccccc1,0,0,0,1
dimethyl(phenyl)silicon,308.15,1,C[Si](C)c1ccccc1,1,1,0,0
"9(10H)-Anthracenone, 1,8-dihydroxy- (9CI)",521.75,1,O=C1c2c(O)cccc2Cc2cccc(O)c21,0,0,0,0
"1,2-dichlorobenzene",339.15,1,C1=CC=C(C(=C1)Cl)Cl,0,0,0,0
"4-propan-2-ylbenzene-1,2-diol",402.35,1,CC(C)c1ccc(O)c(O)c1,0,0,0,0
"2H-Pyran-2-one, tetrahydro-6-propyl-",398.15,1,CCCC1CCCC(=O)O1,0,0,0,0
"Benzenamine, N-nitroso-N-phenyl-",436.55,1,O=NN(c1ccccc1)c1ccccc1,0,0,0,0
isocyanatocyclohexane,322.15,1,C1CCC(CC1)N=C=O,0,0,0,0
"Isocyanic acid, m-phenylenedimethylene ester",392.25,1,O=C=NCc1cccc(CN=C=O)c1,0,0,0,1
"1,3,5-trimethoxybenzene",358.75,1,COc1cc(OC)cc(OC)c1,0,0,0,0
"1,2,3-trimethoxybenzene",343.55,1,COc1cccc(OC)c1OC,0,0,0,0
"Phenol, 2-pentyl-",399.45,1,CCCCCc1ccccc1O,0,0,0,0
"Ethanol, 2-(methylphenylamino)-",399.85,1,CN(CCO)c1ccccc1,0,0,0,0
3-methylbutyl 2-hydroxypropanoate,347.15,1,CC(C)CCOC(=O)C(C)O,0,0,0,0
Phenyl sulfoxide (8CI),443.25,1,O=S(c1ccccc1)c1ccccc1,0,0,0,0
"Benzoyl chloride, 4-methyl-",355.15,1,Cc1ccc(C(=O)Cl)cc1,0,0,0,0
"1,2-Benzenediol, 4-(2-propenyl)-",414.85,1,C=CCc1ccc(O)c(O)c1,0,0,0,0
bis(3-methylbutyl) oxalate,387.45,1,CC(C)CCOC(=O)C(=O)OCCC(C)C,0,0,0,0
Myristaldehyde (8CI),394.65,1,CCCCCCCCCCCCCC=O,0,0,0,0
"5,9,14,18-Anthrazinetetrone, 6,15-dihydro-",527.05,1,O=c1c2ccccc2c(=O)c2c1ccc1[nH]c3c(ccc4c(=O)c5ccccc5c(=O)c43)[nH]c12,0,0,0,0
2-hydroperoxy-2-(2-hydroperoxybutan-2-ylperoxy)butane,355.15,1,CCC(C)(OO)OOC(C)(CC)OO,0,0,0,0
"Butanedinitrile, tetramethyl- (9CI)",389.55,1,CC(C)(C#N)C(C)(C)C#N,0,0,0,0
"1,1-diethoxy-N,N-dimethylmethanamine",295.35,1,CCOC(OCC)N(C)C,0,0,0,0
"1,1,1,5,5,5-hexafluoropentane-2,4-dione",295.95,1,O=C(CC(=O)C(F)(F)F)C(F)(F)F,0,0,0,0
(2-hydroxy-4-methoxyphenyl)-phenylmethanone,373.15,1,COC1=CC(=C(C=C1)C(=O)C2=CC=CC=C2)O,0,0,0,0
"3-methylhexane-2,5-dione",344.15,1,CC(=O)CC(C)C(C)=O,0,0,0,0
"Pyridine, 5-ethyl-2-hydroxyethyl-",383.85,1,CCc1ccc(CCO)nc1,0,0,0,0
2-ethoxyphenol,364.25,1,CCOc1ccccc1O,0,0,0,0
"Toluene, 3,4-dichloro-alpha,alpha,alpha-trifluoro- (6CI,8CI)",338.75,1,FC(F)(F)c1ccc(Cl)c(Cl)c1,0,0,0,0
1-(dipropoxymethoxy)propane,345.15,1,CCCOC(OCCC)OCCC,0,0,0,0
TRI-n-BUTYLGERMANE,351.15,1,CCCC[GeH](CCCC)CCCC,0,1,0,0
Benzo(k)fluoranthene,501.75,1,c1ccc2cc3c(cc2c1)-c1cccc2cccc-3c12,0,0,0,0
Pentyl isothiocyanate,338.35,1,CCCCCN=C=S,0,0,0,0
triphenylarsane,447.783,1,c1ccc([As](c2ccccc2)c2ccccc2)cc1,0,1,0,0
"2-Butenoic acid, 2,3-dichloro-4-oxo-, (Z)- (9CI)",459.15,1,O=C/C(Cl)=C(/Cl)C(=O)O,0,0,0,1
"Benzaldehyde, 4-nitro-",428.35,1,O=Cc1ccc([N+](=O)[O-])cc1,0,0,0,0
3-chloroaniline,397.15,1,C1=CC(=CC(=C1)Cl)N,0,0,0,0
"Guanidine, N-cyano-",365.95,1,N#CNC(=N)N,0,0,0,0
oxolan-2-one,371.15,1,C1CC(=O)OC1,0,0,0,0
"Propene, 2,3-dibromo- (8CI)",354.15,1,C=C(Br)CBr,0,0,0,0
"7,12-dimethylbenzo[a]anthracene",359.15,1,CC1=C2C=CC3=CC=CC=C3C2=C(C4=CC=CC=C14)C,0,0,0,0
"3,5-dibromophenol",395.15,1,Oc1cc(Br)cc(Br)c1,0,0,0,0
"dodeca-1,11-diene",342.45,1,C=CCCCCCCCCC=C,0,0,0,0
sec-butyl acetate,289,1,CCC(C)OC(C)=O,0,0,0,0
hept-1-en-4-ol,329.55,1,C=CCC(O)CCC,0,0,0,0
"Glutaryl chloride (7CI,8CI)",379.85,1,O=C(Cl)CCCC(=O)Cl,0,0,0,0
"Benzoic acid, 3,4,5-trihydroxy-, propyl ester",454.45,1,CCCOC(=O)c1cc(O)c(O)c(O)c1,0,0,0,1
"Sulfide, ethyl phenyl (8CI)",347.05,1,CCSc1ccccc1,0,0,0,0
"Benzoic acid, 2-((phenylamino)carbonyl)-",443.85,1,O=C(O)c1ccccc1C(=O)Nc1ccccc1,0,0,0,1
4-dimethoxyphosphinothioyloxybenzonitrile,377.15,1,COP(=S)(OC)OC1=CC=C(C=C1)C#N,0,0,0,0
ethyl 3-methylbenzoate,374.25,1,CCOC(=O)c1cccc(C)c1,0,0,0,0
"Hydroxylamine, N-phenyl-",393.35,1,ONc1ccccc1,0,0,0,0
"1,3-dimethylcyclohexene",285,1,CC1=CC(C)CCC1,0,0,0,0
2-methoxyphenol,347.15,1,COC1=CC=CC=C1O,0,0,0,0
"4-Stilbenamine, 4'-chloro-",467.15,1,Nc1ccc(C=Cc2ccc(Cl)cc2)cc1,0,0,0,0
DIMERCAPTOETHYL ETHER,371.1,1,SC(S)COCC(S)S,0,0,0,0
1-ethoxypropan-2-yl acetate,326.15,1,CCOCC(C)OC(=O)C,0,0,0,0
bromoethane,253,1,BrCC,0,0,0,0
"2,2-dimethylpropanoyl 2,2-dimethylpropanoate",330.15,1,CC(C)(C)C(=O)OC(=O)C(C)(C)C,0,0,0,0
"1,6-Dioxacycloheptadecan-17-one",447.55,1,O=C1CCCCCCCCCCOCCCCO1,0,0,0,0
4-octyl-N-(4-octylphenyl)aniline,486.15,1,CCCCCCCCC1=CC=C(C=C1)NC2=CC=C(C=C2)CCCCCCCC,0,0,0,0
"Propane, 1,2,3-tribromo-",366.15,1,BrCC(Br)CBr,0,0,0,0
"Phenol, 2-ethoxy-5-(1-propenyl)-",438.35,1,CC=Cc1ccc(OCC)c(O)c1,0,0,0,0
"Benzaldehyde, o-fluoro- (8CI)",328.15,1,O=Cc1ccccc1F,0,0,0,0
tributylamine,344,1,C(CCC)N(CCCC)CCCC,0,0,0,0
"1H-Pyrrole-2,5-dione, 1-(4-methylphenyl)- (9CI)",427.35,1,Cc1ccc(N2C(=O)C=CC2=O)cc1,0,0,0,0
"Cinnamic acid, o-nitro- (6CI,7CI,8CI)",444.95,1,O=C(O)C=Cc1ccccc1[N+](=O)[O-],0,0,0,1
allylmethacrylate,310,1,C(C=C)OC(C(=C)C)=O,0,0,0,0
"Butane, 1,1,1,2,2,3,3,4,4-nonafluoro-4-iodo-",291.85,1,FC(F)(F)C(F)(F)C(F)(F)C(F)(F)I,0,0,0,0
"Naphthalene, 1,2,3,4-tetrahydro-1,1,6-trimethyl-",370.95,1,Cc1ccc2c(c1)CCCC2(C)C,0,0,0,0
"Alanine, 3-(3,4-dihydroxyphenyl)-, L-",498.15,1,N[C@@H](Cc1ccc(O)c(O)c1)C(=O)O,0,0,0,0
1-ethylsulfanylpropane,292.05,1,CCCSCC,0,0,0,0
"2-Propenoic acid, 2-methyl-, phenylmethyl ester",380.35,1,C=C(C)C(=O)OCc1ccccc1,0,0,0,1
"2,3,4-trimethylpyridine",335.05,1,Cc1ccnc(C)c1C,0,0,0,0
"2,4-dibromophenol",386.15,1,C1=CC(=C(C=C1Br)Br)O,0,0,0,0
tetrahydrofuran,252,1,O1CCCC1,0,0,0,0
6-bromohexan-2-one,351.35,1,CC(=O)CCCCBr,0,0,0,0