compound,flashpoint,pure substance,smiles,is_silicon,is_metallic,is_tin,is_acid
"Ethanol, 2-(ethylsulfonyl)-",428.25,1,CCS(=O)(=O)CCO,0,0,0,0
Dimethyl(pentafluorophenyl) silane,313.15,1,C[SiH](C)c1c(F)c(F)c(F)c(F)c1F,1,1,0,0
AMINOCAPRONITRILE,378,1,CCCCC(N)C#N,0,0,0,0
"Anthraquinone, 1,4-bis((2-hydroxyethyl)amino)- (6CI,7CI,8CI)",623.55,1,O=C1c2ccccc2C(=O)c2c(NCCO)ccc(NCCO)c21,0,0,0,0
5-decene,319,1,CCCCC=CCCCC,0,0,0,0
NAPHTHALENE,352,1,c1ccc2ccccc2c1,0,0,0,0
"Phenol, 4,4'-methylenebis(2,6-bis(1,1-dimethylethyl)-",451.25,1,CC(C)(C)c1cc(Cc2cc(C(C)(C)C)c(O)c(C(C)(C)C)c2)cc(C(C)(C)C)c1O,0,0,0,0
"Benzene, 1-bromo-2-methyl-",351.15,1,Cc1ccccc1Br,0,0,0,0
p -ethylcumene,338.9,1,CCc1ccc(C(C)C)cc1,0,0,0,0
m-ETHYLPHENOL,367.1,1,CCc1cccc(O)c1,0,0,0,0
"1-Pentyn-3-ol, 3-methyl-",302.15,1,C#CC(C)(O)CC,0,0,0,0
4-octylphenol,386.15,1,CCCCCCCCC1=CC=C(C=C1)O,0,0,0,0
"Glycine, N-(2-(bis(carboxymethyl)amino)ethyl)-N-(2-hydroxyethyl)-",573.15,1,O=C(O)CN(CCO)CCN(CC(=O)O)CC(=O)O,0,0,0,0
(E)-3-phenylprop-2-enoyl chloride,385.65,1,O=C(Cl)/C=C/c1ccccc1,0,0,0,0
3-fluoropropan-1-ol,311.65,1,OCCCF,0,0,0,0
"2,5-Pyridinedicarboxylic acid, dipropyl ester",444.45,1,CCCOC(=O)c1ccc(C(=O)OCCC)nc1,0,0,0,1
"N,N-dimethylaniline",336.15,1,CN(C)C1=CC=CC=C1,0,0,0,0
"4H-1-Benzopyran-4-one, 3,5,7-trihydroxy-2-(4-hydroxy-3-methoxyphenyl)-",500.95,1,COc1cc(-c2oc3cc(O)cc(O)c3c(=O)c2O)ccc1O,0,0,0,0
Vinyltrimethoxysilane,296.15,1,C=C[Si](OC)(OC)OC,1,1,0,0
3-Chloro-3-methylhexane,306.7,1,CCCC(C)(Cl)CC,0,0,0,0
1-chloro-3-fluoro-2-methylbenzene,320.85,1,Cc1c(F)cccc1Cl,0,0,0,0
citronellylacetate,376,1,C(CC(C)CCC=C(C)C)CC(=O)[O-],0,0,0,0
benzylpropanoate,369,1,C(C1=CC=CC=C1)OC(CC)=O,0,0,0,0
"dimethyl benzene-1,3-dicarboxylate",411.15,1,COC(=O)C1=CC(=CC=C1)C(=O)OC,0,0,0,0
"Phosphorodithioic acid, S-(2-(ethylsulfinyl)ethyl) O,O-dimethyl ester",459.35,1,CCS(=O)CCSP(=S)(OC)OC,0,0,0,1
"2,3,5,6-tetrafluoroaniline",335.15,1,Nc1c(F)c(F)cc(F)c1F,0,0,0,0
3-iodohexane,328,1,IC(CC)CCC,0,0,0,0
"2-Propanone, 1,1,1,3,3-pentachloro-",347.55,1,O=C(C(Cl)Cl)C(Cl)(Cl)Cl,0,0,0,0
Dodec-2-en-1-al,394.15,1,CCCCCCCCCC=CC=O,0,0,0,0
3-ethoxy-4-hydroxybenzaldehyde,418.15,1,CCOC1=C(C=CC(=C1)C=O)O,0,0,0,0
"Phosphine, diphenylpropyl-",423.65,1,PCCC(c1ccccc1)c1ccccc1,0,0,0,0
methyl2-octynoate,362,1,COC(C#CCCCCC)=O,0,0,0,0
"2-methylisoindole-1,3-dione",390.55,1,CN1C(=O)c2ccccc2C1=O,0,0,0,0
1-METHYL-2-n-PROPYLBENZENE,326,1,CCCc1ccccc1C,0,0,0,0
2nonanone,333.15,1,CCCCCCCC(C)=O,0,0,0,0
"3-Heptanol, 5-methyl-",337.35,1,CCC(C)CC(O)CC,0,0,0,0
"Benzenamine, 2,4,6-trimethyl-",369.15,1,Cc1cc(C)c(N)c(C)c1,0,0,0,0
"Phosphoramidic acid, diethyl-, 2-chloroethenyl ethyl ester",382.15,1,CCOP(=O)(OC=CCl)N(CC)CC,0,0,0,1
"1H-Indene-1-carboxylic acid, 6-chloro-5-cyclohexyl-2,3-dihydro- (9CI)",483.65,1,O=C(O)C1CCc2cc(C3CCCCC3)c(Cl)cc21,0,0,0,1
"1,4-dinitrobenzene",423.15,1,C1=CC(=CC=C1[N+](=O)[O-])[N+](=O)[O-],0,0,0,0
"Benzoic acid, 4-formyl-, methyl ester",417.15,1,COC(=O)c1ccc(C=O)cc1,0,0,0,1
2-methylpropanoyl chloride,274.25,1,CC(C)C(=O)Cl,0,0,0,0
2-HEPTANONE,312.1,1,CCCCCC(C)=O,0,0,0,0
benzyl acetate,364.15,1,CC(=O)OCC1=CC=CC=C1,0,0,0,0
2-furylmethanol,356,1,OCc1ccco1,0,0,0,0
4-(2-hydroxypropan-2-yl)-1-methylcyclohexan-1-ol,392.15,1,CC1(O)CCC(C(C)(C)O)CC1,0,0,0,0
(Z)-but-2-ene,262.15,1,CC=CC,0,0,0,0
cis-CROTONALDEHYDE,281.1,1,C/C=C\C=O,0,0,0,0
4-methoxybenzoyl chloride,360.95,1,COc1ccc(C(=O)Cl)cc1,0,0,0,0
"Mannitol, 1,6-dibromo-1,6-dideoxy-, D-",536.15,1,O[C@H](CBr)[C@@H](O)[C@H](O)[C@H](O)CBr,0,0,0,0
"Dibenzo(b,def)chrysene-7,14-dione",493.05,1,O=c1c2ccccc2c2ccc3c(=O)c4ccccc4c4ccc1c2c34,0,0,0,0
"4a(4H)-Dibenzofurancarboxaldehyde, 1,5a,6,9,9a,9b-hexahydro-",409.35,1,O=CC12CC=CCC1C1CC=CCC1O2,0,0,0,0
"3,3,4-trimethylheptane",317.55,1,CCCC(C)C(C)(C)CC,0,0,0,0
"2-Propenal, 3-(4-(dimethylamino)phenyl)-",404.35,1,CN(C)c1ccc(C=CC=O)cc1,0,0,0,0
"Propanenitrile, 3-butoxy-",361.35,1,CCCCOCCC#N,0,0,0,0
"Dibenz(b,f)(1,4)oxazepine, 2-chloro-11-(4-methyl-1-piperazinyl)-",504.25,1,CN1CCN(C2=Nc3ccccc3Oc3ccc(Cl)cc32)CC1,0,0,0,0
CyclohexylDimethylSilane,336.15,1,C[SiH](C)C1CCCCC1,1,1,0,0
"Benzene, 2,4-difluoro-1-nitro-",363.15,1,O=[N+]([O-])c1ccc(F)cc1F,0,0,0,0
"1,3-Indandione, 2-(p-chlorophenyl)-",456.55,1,O=C1c2ccccc2C(=O)C1c1ccc(Cl)cc1,0,0,0,0
"2-Propenal, phenylhydrazone (9CI)",375.25,1,C=CC=NNc1ccccc1,0,0,0,0
"2-Butanone, 3-chloro-",296.15,1,CC(=O)C(C)Cl,0,0,0,0
"Benzeneacetic acid, alpha-cyclohexyl-alpha-hydroxy-, 4-(diethylamino)-",525.95,1,CCN(CC)c1ccc(C(O)(C(=O)O)C2CCCCC2)cc1,0,0,0,1
"Methanone, (4-methoxyphenyl)phenyl-",428.85,1,COc1ccc(C(=O)c2ccccc2)cc1,0,0,0,0
(1-methylhexyl)benzene,360.4,1,CCCCCC(C)c1ccccc1,0,0,0,0
3-METHYLPYRIDINE,309.1,1,Cc1cccnc1,0,0,0,0
"2,3,3,4-tetramethylpentane",284,1,CC(C)C(C)(C)C(C)C,0,0,0,0
"(2,6-dibromo-4-cyanophenyl) octanoate",375.15,1,CCCCCCCC(=O)OC1=C(C=C(C=C1Br)C#N)Br,0,0,0,0
8-methylnonyl 2-methylprop-2-enoate,394.15,1,CC(C)CCCCCCCOC(=O)C(=C)C,0,0,0,0
"Benzene, 1-methyl-4-nitro-",376.15,1,Cc1ccc([N+](=O)[O-])cc1,0,0,0,0
1-methyl-4-(2-methyloxiran-2-yl)-7-oxabicyclo[4.1.0]heptane,391.15,1,CC12CCC(CC1O2)C3(CO3)C,0,0,0,0
ETHYL ISOPROPYL ETHER,228,1,CCOC(C)C,0,0,0,0
"trans-1,4-dimethylcyclohexane",279,1,C[C@H]1CC[C@H](C)CC1,0,0,0,0
p-ISOPROPENYLSTYRENE,360,1,C=Cc1ccc(C(=C)C)cc1,0,0,0,0
"Acetic acid, (2-naphthalenyloxy)-",428.95,1,O=C(O)COc1ccc2ccccc2c1,0,0,0,1
"Benzenamine, 2-chloro-4-methyl-",372.15,1,Cc1ccc(N)c(Cl)c1,0,0,0,0
tris(butylsulfanyl)phosphane,419.15,1,CCCCSP(SCCCC)SCCCC,0,0,0,0
"3-methylpentane-2,4-diol",364.45,1,CC(O)C(C)C(C)O,0,0,0,0
1-METHYL-3-HYDROXY-5-ISOPROPYL BENZENE,383.1,1,Cc1cc(O)cc(C(C)C)c1,0,0,0,0
"1,3-Propanediol, 2,2-bis(hydroxymethyl)-",473.25,1,OCC(CO)(CO)CO,0,0,0,0
"Urea, (3,4-dichlorophenyl)-",409.65,1,NC(=O)Nc1ccc(Cl)c(Cl)c1,0,0,0,0
"2,2,4-trimethylhexane",288,1,CCC(C)CC(C)(C)C,0,0,0,0
"1-Butanamine, N-methyl-",274.85,1,CCCCNC,0,0,0,0
8-Hydroxy-4-(hydroxyacetyl)-1H-2-benzopyran-1-one,472.05,1,O=C(CO)c1coc(=O)c2c(O)cccc12,0,0,0,0
"Benzenamine, N,N-dimethyl-4-((2-methylphenyl)azo)- (9CI)",463.35,1,Cc1ccccc1N=Nc1ccc(N(C)C)cc1,0,0,0,0
o-isopropyltoluene,323,1,C(C)(C)C1=C(C)C=CC=C1,0,0,0,0
"Phosphonothioic acid, methyl-, O,S-diethyl ester",352.75,1,CCOP(C)(=O)SCC,0,0,0,1
"Ethanamine, 2-(diphenylmethoxy)-N,N-dimethyl-",374.65,1,CN(C)CCOC(c1ccccc1)c1ccccc1,0,0,0,0
di-n-hexyl phthalate,466,1,CCCCCCOC(=O)c1ccccc1C(=O)OCCCCCC,0,0,0,0
Methylformate,254.15,1,COC=O,0,0,0,0
"1,3dimethylcyclohexane",278,1,CC1CCCC(C)C1,0,0,0,0
"Dibenzofuran, 2,8-dichloro- (8CI)(9CI)",442.45,1,Clc1ccc2oc3ccc(Cl)cc3c2c1,0,0,0,0
"2,4-dimethyl-1-nitrobenzene",380.15,1,CC1=CC(=C(C=C1)[N+](=O)[O-])C,0,0,0,0
"(1R,2R,3R,6S,7S,8S,9S,11R)-3,4,5,6,13,13-hexachloro-10-oxapentacyclo[6.3.1.13,6.02,7.09,11]tridec-4-ene",300.15,1,C1C2C3C(C1C4C2O4)C5(C(=C(C3(C5(Cl)Cl)Cl)Cl)Cl)Cl,0,0,0,0
Quinoline,365.15,1,c1ccc2ncccc2c1,0,0,0,0
"Pentanedinitrile, hexafluoro- (9CI)",293.75,1,N#CC(F)(F)C(F)(F)C(F)(F)C#N,0,0,0,0
"Pyrimidine, 2,4-diamino-5-(p-chlorophenyl)-6-ethyl-",524.15,1,CCc1nc(N)nc(N)c1-c1ccc(Cl)cc1,0,0,0,0
"Ethene, 1,1'-sulfonylbis-",375.15,1,C=CS(=O)(=O)C=C,0,0,0,0
"1,1-dichloropentane",314.15,1,CCCCC(Cl)Cl,0,0,0,0
2-(fluoromethyl)oxirane,277.15,1,FCC1CO1,0,0,0,0
"Benzoic acid, 2-(((3-methylphenyl)amino)carbonyl)-",451.35,1,Cc1cccc(NC(=O)c2ccccc2C(=O)O)c1,0,0,0,1
"1-Butanol, 2,2,3,3,4,4,4-heptafluoro-",298.15,1,OCC(F)(F)C(F)(F)C(F)(F)F,0,0,0,0
(5-methyl-2-propan-2-ylphenyl) acetate,367.35,1,CC(=O)Oc1cc(C)ccc1C(C)C,0,0,0,0
gammaButyrolactone,371,1,O=C1CCCO1,0,0,0,0
1bromoheptane,333.75,1,CCCCCCCBr,0,0,0,0
"Ethanol, 2,2'-oxybis-, dibenzoate",446.15,1,O=C(O)c1ccccc1.O=C(O)c1ccccc1.OCCOCCO,0,0,0,0
"Tryptophan, N-acetyl-, L-",581.75,1,CC(=O)N[C@@H](Cc1c[nH]c2ccccc12)C(=O)O,0,0,0,0
2-methyl-2-butanol,294,1,CCC(C)(C)O,0,0,0,0
2-ethylhexyl ethanoate,344,1,CCCCC(CC)COC(=O)C,0,0,0,0
TETRAETHYLGERMANE,315.15,1,CC[Ge](CC)(CC)CC,0,1,0,0
"Hexanoic acid, 3-oxo-, ethyl ester",351.45,1,CCCC(=O)CC(=O)OCC,0,0,0,1
2-methyl-1-heptene,283,1,CC(=C)CCCCC,0,0,0,0
acrolein,254,1,C(=O)C=C,0,0,0,0
"1,1'-Biphenyl, 4-chloro- (9CI)",400.15,1,Clc1ccc(-c2ccccc2)cc1,0,0,0,0
ethyl 2-anilinoacetate,392.75,1,CCOC(=O)CNc1ccccc1,0,0,0,0
methyl pyridine-3-carboxylate,368.75,1,COC(=O)c1cccnc1,0,0,0,0
"9,10-Anthracenedione, 1,4-diamino-",556.05,1,Nc1ccc(N)c2c1C(=O)c1ccccc1C2=O,0,0,0,0
"(1,1'-Biphenyl)-4-ol",420.35,1,Oc1ccc(-c2ccccc2)cc1,0,0,0,0
2ethyl1pentene-,263.15,1,C=C(CC)CCC,0,0,0,0
"Butanoic acid, 3-methyl-, 3-phenyl-2-propenyl ester",401.45,1,CC(C)CC(=O)OCC=Cc1ccccc1,0,0,0,1
"1,4-diphenylbenzene",480.15,1,C1=CC=C(C=C1)C2=CC=C(C=C2)C3=CC=CC=C3,0,0,0,0
"Glycine, N,N'-1,3-propanediylbis(N-(carboxymethyl)-",602.25,1,O=C(O)CN(CCCN(CC(=O)O)CC(=O)O)CC(=O)O,0,0,0,0
methyl 2-methylprop-2-enoate,284,1,COC(=O)C(=C)C,0,0,0,0
"2-Propenal, 3-(4-nitrophenyl)-",424.75,1,O=CC=Cc1ccc([N+](=O)[O-])cc1,0,0,0,0
"1H-Azepine-1-carbothioic acid, hexahydro-, S-ethyl ester",395.75,1,CCSC(=O)N1CCCCCC1,0,0,0,1
propylpropanoate,295,1,C(CC)OC(CC)=O,0,0,0,0
"Benzenesulfonamide, 4-amino-N-2-quinoxalinyl-",560.25,1,Nc1ccc(S(=O)(=O)Nc2cnc3ccccc3n2)cc1,0,0,0,0
Chloromethyldimethylchlorosilane,295.15,1,C[Si](C)(Cl)CCl,1,1,0,0
1-ethyl-2-methylbenzene,312.55,1,CCc1ccccc1C,0,0,0,0
"10H-Phenothiazine-10-propanamine, 2-methoxy-N,N,beta-trimethyl-, (-)-",509.95,1,COc1ccc2c(c1)N(CC(C)CN(C)C)c1ccccc1S2,0,0,0,0
"1,2-dichlorobenzene",341,1,ClC1=C(C=CC=C1)Cl,0,0,0,0
"1,1,2-TRIPHENYLETHANE",441,1,c1ccc(CC(c2ccccc2)c2ccccc2)cc1,0,0,0,0
methyl 10-undecenoate,373,1,C=CCCCCCCCCC(=O)OC,0,0,0,0
1-bromo-4-fluorobutane,306.45,1,FCCCCBr,0,0,0,0
"Benzeneacetamide, N,N-dimethyl-alpha-phenyl- (9CI)",446.45,1,CN(C)C(=O)C(c1ccccc1)c1ccccc1,0,0,0,0
"1,1-dinitroethane",352.15,1,CC([N+](=O)[O-])[N+](=O)[O-],0,0,0,0
trans-2-HEPTENE,272,1,C/C=C/CCCC,0,0,0,0
"Benzoic acid, 2-(acetyloxy)-, 2-carboxyphenyl ester",477.05,1,CC(=O)Oc1ccccc1C(=O)Oc1ccccc1C(=O)O,0,0,0,1
acenaphthylene,395.15,1,C1=CC2=C3C(=C1)C=CC3=CC=C2,0,0,0,0
"3,5-dimethyl-1,2-oxazole",304.25,1,Cc1cc(C)on1,0,0,0,0
VinylDimethylEthoxySilane,277.15,1,C=C[Si](C)(C)OCC,1,1,0,0
"4H-1-Benzopyran-4-one, 2,3-dihydro-",401.534,1,O=C1CCOc2ccccc21,0,0,0,0
m-xylene,298,1,Cc1cccc(C)c1,0,0,0,0
"Phenol, 2-methoxy-4-(2-propenyl)-, acetate",383.15,1,C=CCc1ccc(OC(C)=O)c(OC)c1,0,0,0,0
But-3-yn-1-ol,309.15,1,C#CCCO,0,0,0,0
"1,8-Naphthalenediamine",471.85,1,Nc1cccc2cccc(N)c12,0,0,0,0
"1,4-Benzenedicarboxylic acid, 2,3,5,6-tetrachloro-, dimethyl ester",447.85,1,COC(=O)c1c(Cl)c(Cl)c(C(=O)OC)c(Cl)c1Cl,0,0,0,1
"Benzothiazole, 2-amino-6-ethoxy- (8CI)",442.25,1,CCOc1ccc2nc(N)sc2c1,0,0,0,0
"1,1,3,3-tetramethylcyclopentane",291.05,1,CC1(C)CCC(C)(C)C1,0,0,0,0
"1,4cyclohexadiene",267,1,C1=CCC=CC1,0,0,0,0
propionitrile,279,1,C(CC)#N,0,0,0,0
"Ethane, 1,2-dimethoxy-",273.15,1,COCCOC,0,0,0,0
1-n-HEXYLNAPHTHALENE,425,1,CCCCCCc1cccc2ccccc12,0,0,0,0
"Quinoline, 4-methyl-",379.25,1,Cc1ccnc2ccccc12,0,0,0,0
n-NONADECANOIC acid,483,1,CCCCCCCCCCCCCCCCCCC(=O)O,0,0,0,1
"p-Benzoquinone, 2-phenyl- (8CI)",398.35,1,O=C1C=CC(=O)C(c2ccccc2)=C1,0,0,0,0
Dimethylvinylchlorosilane,268.15,1,CC(C)=C[SiH2]Cl,1,1,0,0
"1,2,2-tribromopropane",344.85,1,CC(Br)(Br)CBr,0,0,0,0
"1,2,4-trimethylcyclohexane",301.05,1,CC1CCC(C)C(C)C1,0,0,0,0
(E)-hex-3-en-1-ol,317.55,1,CC/C=C/CCO,0,0,0,0
2-cyclopentylcyclopentan-1-one,363.45,1,O=C1CCCC1C1CCCC1,0,0,0,0
1-fluoro-4-methylbenzene,314.15,1,CC1=CC=C(C=C1)F,0,0,0,0
"Ethylene glycol, monoacetate",350.55,1,CC(=O)OCCO,0,0,0,0
2-(4-methylphenyl)propan-2-ol,369.15,1,CC1=CC=C(C=C1)C(C)(C)O,0,0,0,0
"3-ethyl-2,2-dimethylhexane",311,1,C(C)C(C(C)(C)C)CCC,0,0,0,0
2-OCTANOL,344.3,1,CCCCCCC(C)O,0,0,0,0
heptan-2-amine,327.15,1,CCCCCC(C)N,0,0,0,0
m-isopropyltoluene,320,1,C(C)(C)C=1C=C(C)C=CC1,0,0,0,0
"2,2,3,3-tetramethylhexane",316.85,1,CCCC(C)(C)C(C)(C)C,0,0,0,0
acetyl ethaneperoxoate,318.15,1,CC(=O)OOC(=O)C,0,0,0,0
"Acetamide, 2-iodo-",406.65,1,NC(=O)CI,0,0,0,0
"1,1,1-Trifluoropropyltrichlorosilane",288.15,1,CC(C(F)(F)F)[Si](Cl)(Cl)Cl,1,1,0,0
Decan-4-ol,355.35,1,CCCCCCC(O)CCC,0,0,0,0
1-iodo-4-nitrobenzene,373.15,1,O=[N+]([O-])c1ccc(I)cc1,0,0,0,0
"Pentanamide, 2-ethyl-3-methyl-",392.95,1,CCC(C)C(CC)C(N)=O,0,0,0,0
allylmethylamine,265,1,C(C=C)CN,0,0,0,0
1-bromo-4-fluorobenzene,333.15,1,C1=CC(=CC=C1F)Br,0,0,0,0
"1,2dimethylcyclohexane",288,1,CC1CCCCC1C,0,0,0,0
"2,4,6-trinitrophenol",423.15,1,C1=C(C=C(C(=C1[N+](=O)[O-])O)[N+](=O)[O-])[N+](=O)[O-],0,0,0,0
p-CHLOROANILINE,386,1,Nc1ccc(Cl)cc1,0,0,0,0
1-Heptynyltrimethylsilane,315.15,1,CCCCCC#C[Si](C)(C)C,1,1,0,0
2-Bromo-N-(4-methylphenyl)acetamide,441.85,1,Cc1ccc(NC(=O)CBr)cc1,0,0,0,0
"(2Z)-3,7-dimethylocta-2,6-dienal",375.15,1,CC(=CCCC(=CC=O)C)C,0,0,0,0
pentylformate,299,1,C(CCCC)OC=O,0,0,0,0
nitrobenzene,361,1,[N+](=O)([O-])C1=CC=CC=C1,0,0,0,0
"4,4-dimethylpentan-2-one",292.05,1,CC(=O)CC(C)(C)C,0,0,0,0
"m-Xylene, 5-nitro- (8CI)",384.55,1,Cc1cc(C)cc([N+](=O)[O-])c1,0,0,0,0
Trichloro(p-chlorophenyl)silane,397.05,1,Clc1ccc([Si](Cl)(Cl)Cl)cc1,1,1,0,0
2-methoxy-1-phenylethanone,368.05,1,COCC(=O)c1ccccc1,0,0,0,0
ethylidenecyclohexane,297.05,1,CC=C1CCCCC1,0,0,0,0
"2,3-Dimethylbutane",244,1,CC(C)C(C)C,0,0,0,0
1-benzyl-2-methylbenzene,395.45,1,Cc1ccccc1Cc1ccccc1,0,0,0,0
ACETANILIDE,446.1,1,CC(=O)Nc1ccccc1,0,0,0,0
"Heptanedioic acid, diethyl ester",390.55,1,CCOC(=O)CCCCCC(=O)OCC,0,0,0,1
4-Chloro-4-methyloctane,333.1,1,CCCCC(C)(Cl)CCC,0,0,0,0
5-hexen-1-ol,320,1,C=CCCCCO,0,0,0,0
pyrrolidin-2-one,402.15,1,C1CC(=O)NC1,0,0,0,0
2-[(2-methylphenoxy)methyl]oxirane,366.15,1,CC1=CC=CC=C1OCC2CO2,0,0,0,0
4-tert-butylphenol,386,1,Oc1ccc(cc1)C(C)(C)C,0,0,0,0
Dibenzooxathiane,415.85,1,c1ccc2c(c1)OSc1ccccc1-2,0,0,0,0
"Benzimidazole, 5-tert-butyl-2-(trifluoromethyl)-",413.85,1,CC(C)(C)c1ccc2nc(C(F)(F)F)[nH]c2c1,0,0,0,0
"2-(4-Methoxyphenyl)-4,5-diphenyl-1H-imidazole",461.95,1,COc1ccc(-c2nc(-c3ccccc3)c(-c3ccccc3)[nH]2)cc1,0,0,0,0
"Phosphoric acid, diethyl 3,5,6-trichloro-2-pyridinyl ester (9CI)",443.35,1,CCOP(=O)(OCC)Oc1nc(Cl)c(Cl)cc1Cl,0,0,0,1
2-methoxy-4-prop-2-enylphenol,377.15,1,COC1=C(C=CC(=C1)CC=C)O,0,0,0,0
"3,4-Xylenol, 6-tert-butyl-",388.85,1,Cc1cc(O)c(C(C)(C)C)cc1C,0,0,0,0
"Phenol, 4-chloro-3,5-dimethyl-",379.05,1,Cc1cc(O)cc(C)c1Cl,0,0,0,0
benzaldehyde,335,1,C(C1=CC=CC=C1)=O,0,0,0,0
Phenyldimethylsilane,311.15,1,C[SiH](C)c1ccccc1,1,1,0,0
1pentene4yne-,229.15,1,C#CCC=C,0,0,0,0
"Hydrocinnamic acid, alpha-amino-3-carboxy-4-methoxy-, DL-",508.65,1,COc1ccc(CC(N)C(=O)O)cc1C(=O)O,0,0,0,1
n-propylcyclohexane,308,1,CCCC1CCCCC1,0,0,0,0
"3,4-dimethylquinoline",391.95,1,Cc1cnc2ccccc2c1C,0,0,0,0
N-methyl-1-phenylpropan-2-amine;hydrochloride,282.15,1,CC(CC1=CC=CC=C1)NC.Cl,0,0,0,0
2-(4-methylcyclohex-3-en-1-yl)propan-2-ol,362.55,1,CC1=CCC(C(C)(C)O)CC1,0,0,0,0
TetrakisDimethylsiloxySilane,340.15,1,C[SiH](C)O[Si](O[SiH](C)C)(O[SiH](C)C)O[SiH](C)C,1,1,0,0
methyl dodecanoate,386,1,CCCCCCCCCCCC(=O)OC,0,0,0,0
"Oxetane, 3-(chloromethyl)-3-ethyl-",322.55,1,CCC1(CCl)COC1,0,0,0,0
"Fumaric acid, dihydroxy-, dimethyl ester",383.95,1,COC(=O)/C(O)=C(\O)C(=O)OC,0,0,0,1
"Benzene, 1-methoxy-4-propyl-",363.15,1,CCCc1ccc(OC)cc1,0,0,0,0
"Thiophene, tetrahydro-",285.95,1,C1CCSC1,0,0,0,0
decanal,356,1,C(CCCCCCCCC)=O,0,0,0,0
1methylpyrrolidine,255,1,CN1CCCC1,0,0,0,0
2-METHYLPROPANAL,266,1,CC(C)C=O,0,0,0,0
Piperidine,289.15,1,C1CCNCC1,0,0,0,0
DimethylolUrea,505.15,1,O=C(NCO)NCO,0,0,0,0
"1,3-Propanediol, 2,2-bis(chloromethyl)-",429.45,1,OCC(CO)(CCl)CCl,0,0,0,0
o-Dinitrobenzene,423.15,1,O=[N+]([O-])c1ccccc1[N+](=O)[O-],0,0,0,0
ACETOPHENONE,355.4,1,CC(=O)c1ccccc1,0,0,0,0
5-methyl-2-hexanone,309,1,CC(CCC(C)=O)C,0,0,0,0
"1,3,5-Triazine-2,4-diamine, 6-methoxy-N,N'-bis(1-methylethyl)-",444.05,1,COc1nc(NC(C)C)nc(NC(C)C)n1,0,0,0,0
"Ethanol, 2-(octylthio)-",350.15,1,CCCCCCCCSCCO,0,0,0,0
"Benzene, 1,2-(methylenedioxy)-4-propenyl-",383.15,1,CC=Cc1ccc2c(c1)OCO2,0,0,0,0
"Ethyne, dichloro- (9CI)",280.45,1,ClC#CCl,0,0,0,0
3-methyl-1-butene,217,1,C=CC(C)C,0,0,0,0
(2E)-3-methylpent-2-ene,246,1,CC/C(=C/C)/C,0,0,0,0
anethole,363,1,CC=Cc1ccc(OC)cc1,0,0,0,0
1-chloro-4-(phenoxy)benzene,386.15,1,Clc1ccc(Oc2ccccc2)cc1,0,0,0,0
hexyl hexanoate,372.55,1,CCCCCCOC(=O)CCCCC,0,0,0,0
"Benzoic acid, 3,4,5-trihydroxy-, dodecyl ester",453.45,1,CCCCCCCCCCCCOC(=O)c1cc(O)c(O)c(O)c1,0,0,0,1
"2-Bromo-3,3-dimethyl-N-phenylbutanamide",453.05,1,CC(C)(C)C(Br)C(=O)Nc1ccccc1,0,0,0,0
2-METHYL-1-HEXANOL,333,1,CCCCC(C)CO,0,0,0,0
METHYL para-TOLUATE,363.7,1,COC(=O)c1ccc(C)cc1,0,0,0,0
ChloromethylDimethylPhenylSilane,326.15,1,C[Si](C)(CCl)c1ccccc1,1,1,0,0
dimethoxymethane,255,1,COCOC,0,0,0,0
"Ethanol, 2-(dibutylamino)-",364.85,1,CCCCN(CCO)CCCC,0,0,0,0
"Pentanedioic acid, hexafluoro-, diethyl ester",360.05,1,CCOC(=O)C(F)(F)C(F)(F)C(F)(F)C(=O)OCC,0,0,0,1
"Benzenesulfonic acid, methyl ester",416.15,1,COS(=O)(=O)c1ccccc1,0,0,0,1
4-METHYL-2-PENTANOL,314,1,CC(C)CC(C)O,0,0,0,0
cyclopropanecarboxamide,377.25,1,NC(=O)C1CC1,0,0,0,0
"Pentanoic acid, 4-oxo-, butyl ester",364.15,1,CCCCOC(=O)CCC(C)=O,0,0,0,1
"(1S,4S)-1,7,7-trimethylbicyclo[2.2.1]heptan-2-one",339.15,1,CC1(C2CCC1(C(=O)C2)C)C,0,0,0,0
ethylcyclohexane,291,1,C(C)C1CCCCC1,0,0,0,0
"Acetic acid, (1,1-dimethyl-3-phenylpropyl) ester",383.85,1,CC(=O)OC(C)(C)CCc1ccccc1,0,0,0,1
"Acetonitrile, (dimethylamino)-",306.15,1,CN(C)CC#N,0,0,0,0
"Butanoic acid, 2-phenylethyl ester",383.05,1,CCCC(=O)OCCc1ccccc1,0,0,0,1
"1-Naphthalenamine, N-phenyl-",463.35,1,c1ccc(Nc2cccc3ccccc23)cc1,0,0,0,0
MethylTriethoxySilane,297.15,1,CCO[Si](C)(OCC)OCC,1,1,0,0
"3,4-diethoxybenzaldehyde",402.15,1,CCOc1ccc(C=O)cc1OCC,0,0,0,0
2-bromopropane,344.15,1,CC(C)Br,0,0,0,0
1-phenyl-1-butanone,361,1,C1(=CC=CC=C1)C(CCC)=O,0,0,0,0
"benzene-1,3-diamine",411.15,1,C1=CC(=CC(=C1)N)N,0,0,0,0
1Hindene,328.15,1,C1=Cc2ccccc2C1,0,0,0,0
"1,2-diphenylethanamine",409.95,1,NC(Cc1ccccc1)c1ccccc1,0,0,0,0
"1,2-dimethoxy-3-methylbenzene",340.75,1,COc1cccc(C)c1OC,0,0,0,0
"3,5-dimethyloctane",354.15,1,CCCC(C)CC(C)CC,0,0,0,0
"Tricyclo(3.3.1.13,7)decane",322.05,1,C1C2CC3CC1CC(C2)C3,0,0,0,0
cyclopentanol,324.15,1,C1CCC(C1)O,0,0,0,0
"9H-Fluoren-9-one, 2-nitro-",488.25,1,O=C1c2ccccc2-c2ccc([N+](=O)[O-])cc21,0,0,0,0
Dibutyl peroxide,291.15,1,CCCCOOCCCC,0,0,0,0
tertButylPropionate,293,1,CCC(=O)OC(C)(C)C,0,0,0,0
VINYL PIVALATE,282.1,1,C=COC(=O)C(C)(C)C,0,0,0,0
2-hydroxy-5-methylbenzaldehyde,358.25,1,Cc1ccc(O)c(C=O)c1,0,0,0,0
"5-Chloro-alpha,alpha,alpha-trifluoro-2-nitrotoluene",367.05,1,O=[N+]([O-])c1ccc(Cl)cc1C(F)(F)F,0,0,0,0
"Cyclohex-2-ene-1,1-dimethanol",378.15,1,OCC1(CO)C=CCCC1,0,0,0,0
methyl methanesulfonate,377.15,1,COS(=O)(=O)C,0,0,0,0
"Ethanol, 2-(2-(1-methylethoxy)ethoxyl)-",354.05,1,CC(C)OCCOCCO,0,0,0,0
Stearyl alcohol,411.85,1,CCCCCCCCCCCCCCCCCCO,0,0,0,0
Valine,356.158,1,CC(C)[C@H](N)C(=O)O,0,0,0,0
"Morpholine, 4-(triphenylmethyl)-",399.65,1,c1ccc(C(c2ccccc2)(c2ccccc2)N2CCOCC2)cc1,0,0,0,0
"2-bromo-1,1-dimethoxyethane",324,1,BrCC(OC)OC,0,0,0,0
2-Buten-1-ol,310.15,1,CC=CCO,0,0,0,0
cyclopentanol,324,1,C1(CCCC1)O,0,0,0,0
"2H-Furo(2,3-h)-1-benzopyran-2-one, 5,6-dimethoxy-",493.65,1,COc1c(OC)c2occc2c2oc(=O)ccc12,0,0,0,0
"2-Propanol, 1,1,1,3,3,3-hexafluoro-",277.55,1,OC(C(F)(F)F)C(F)(F)F,0,0,0,0
TrivinylMethylSilane,288.15,1,C=CC([SiH3])(C=C)C=C,1,1,0,0
1hexadecene,405,1,C=CCCCCCCCCCCCCCC,0,0,0,0
4-methoxybenzamide,434.65,1,COc1ccc(C(N)=O)cc1,0,0,0,0
2-[2-(2-hydroxypropoxy)propoxy]propan-1-ol,414.15,1,CC(CO)OCC(C)OCC(C)O,0,0,0,0
"1-Butanone, 1-(4-aminophenyl)-",419.25,1,CCCC(=O)c1ccc(N)cc1,0,0,0,0
"Benzenemethanol, 3,4-dichloro-",388.95,1,OCc1ccc(Cl)c(Cl)c1,0,0,0,0
tetralin,350,1,C1CCc2ccccc2C1,0,0,0,0
1-nitrohexane,345,1,[N+](=O)([O-])CCCCCC,0,0,0,0
"Benzoxazole, 2-amino-",395.05,1,Nc1nc2ccccc2o1,0,0,0,0
"1H-Pyrrole-2,5-dione",409.75,1,O=C1C=CC(=O)N1,0,0,0,0
"Benzenamine, 3-chloro-4-methyl-",373.95,1,Cc1ccc(N)cc1Cl,0,0,0,0
pent-1-ene,222.15,1,C=CCCC,0,0,0,0
"(1R,7S)-1,3,4,7,8,9,10,10-octachlorotricyclo[5.2.1.02,6]dec-8-ene",380.15,1,C1C2C(C(C1Cl)Cl)C3(C(=C(C2(C3(Cl)Cl)Cl)Cl)Cl)Cl,0,0,0,0
"Arsonic acid, (4-hydroxy-3-nitrophenyl)-",513.481,1,O=[N+]([O-])c1cc([As](=O)(O)O)ccc1O,0,1,0,1
diethoxy-methyl-prop-2-enylsilane,315.65,1,C=CC[Si](C)(OCC)OCC,1,1,0,0
heptanenitrile,331,1,C(CCCCCC)#N,0,0,0,0
ETHYL MERCAPTAN,225,1,CCS,0,0,0,0
"Urea, 1-(3,4-dichlorophenyl)-3-methyl- (6CI,7CI,8CI)",405.55,1,CNC(=O)Nc1ccc(Cl)c(Cl)c1,0,0,0,0