compound,flashpoint,pure substance,smiles,is_silicon,is_metallic,is_tin,is_acid
"Phosphoric acid, trioctyl ester",491.15,1,CCCCCCCCOP(=O)(OCCCCCCCC)OCCCCCCCC,0,0,0,1
ethyl 2-methylprop-2-enoate,289.15,1,CCOC(=O)C(=C)C,0,0,0,0
Ethyl butyl ketone,319.15,1,CCCCC(=O)CC,0,0,0,0
non-2-yne,312.15,1,CC#CCCCCCC,0,0,0,0
5methyl3heptanone,316,1,CCC(=O)CC(C)CC,0,0,0,0
"Acetamide, N,N-diethyl-",342.45,1,CCN(CC)C(C)=O,0,0,0,0
N-butylacetamide,389,1,CCCCNC(C)=O,0,0,0,0
"1-N,1-N,3-N,3-N-tetramethylbutane-1,3-diamine",319.15,1,CC(CCN(C)C)N(C)C,0,0,0,0
2chloro1propene-,239.15,1,C=C(C)Cl,0,0,0,0
Trimethylvinylsilane,239.15,1,CC(C)=C(C)[SiH3],1,1,0,0
"cis-1,2-dimethylcyclohexane",285,1,C[C@H]1CCCC[C@H]1C,0,0,0,0
TrisTrimethylSiloxyMethylSilane,336.15,1,C[Si](C)(C)OC([SiH3])(O[Si](C)(C)C)O[Si](C)(C)C,1,1,0,0
"4,7,7-trimethyl-8-oxabicyclo[2.2.2]octane",322.15,1,CC12CCC(CC1)C(C)(C)O2,0,0,0,0
cyclohexanecarbonitrile,338,1,N#CC1CCCCC1,0,0,0,0
Ethylmethyldichlorosilane,275.15,1,CC[Si](C)(Cl)Cl,1,1,0,0
2-methylaminoethanol,344,1,CNCCO,0,0,0,0
"2,5hexanedione",352.15,1,CC(=O)CCC(C)=O,0,0,0,0
iso-Propyl formate,267.15,1,CC(C)OC=O,0,0,0,0
Trimethyl amine,266.15,1,CN(C)C,0,0,0,0
tribenzylamine,476,1,c1ccc(CN(Cc2ccccc2)Cc2ccccc2)cc1,0,0,0,0
m-Dinitrobenzene,423.15,1,O=[N+]([O-])c1cccc([N+](=O)[O-])c1,0,0,0,0
Cyclohexanone,317.15,1,O=C1CCCCC1,0,0,0,0
1methoxy2propaneamine,281.15,1,COCC(C)N,0,0,0,0
1methylnaphthalene,355,1,Cc1cccc2ccccc12,0,0,0,0
diallyl (2Z)-but-2-enedioate,393,1,C=CCOC(=O)/C=C\C(=O)OCC=C,0,0,0,0
BischloromethylDimethylSilane,319.15,1,C[Si](C)(CCl)CCl,1,1,0,0
Tris(trimethylsiloxy)silane,323.15,1,C[Si](C)(C)O[SiH](O[Si](C)(C)C)O[Si](C)(C)C,1,1,0,0
(2-methylbutyl)benzene,337,1,CCC(C)Cc1ccccc1,0,0,0,0
3-methyl-2-pent-2-enylcyclopent-2-en-1-one,380.15,1,CCC=CCC1=C(CCC1=O)C,0,0,0,0
3ethoxypropionicacid,380.35,1,CCOCCC(=O)O,0,0,0,1
PhenylDimethylChloroSilane,334.15,1,C[Si](C)(Cl)c1ccccc1,1,1,0,0
2-Chloro-2-methylbutane,276.5,1,CCC(C)(C)Cl,0,0,0,0
hept-1-ene,269.15,1,CCCCCC=C,0,0,0,0
"(2E)-3,7-dimethylocta-2,6-dien-1-ol",381.15,1,CC(=CCCC(=CCO)C)C,0,0,0,0
3-prop-2-enoxyprop-1-ene,266.15,1,C=CCOCC=C,0,0,0,0
3-octanol,338,1,CCCCCC(O)CC,0,0,0,0
3-chlorohexane,298.15,1,CCCC(Cl)CC,0,0,0,0
1-isobutyl-4-methylbenzene,340.5,1,Cc1ccc(CC(C)C)cc1,0,0,0,0
2-undecanol,380,1,CCCCCCCCCC(C)O,0,0,0,0
"Naphthalene, 1-nitro-",437.15,1,O=[N+]([O-])c1cccc2ccccc12,0,0,0,0
ethyl ethanoate,269,1,CCOC(=O)C,0,0,0,0
"3,4-Dihydro-2H-pyran",255.15,1,C1=COCCC1,0,0,0,0
1-(2-pyridyl)ethanone,349.15,1,CC(=O)c1ccccn1,0,0,0,0
"benzene-1,2-diol",400,1,Oc1ccccc1O,0,0,0,0
(E)-non-2-ene,305.35,1,C/C=C/CCCCCC,0,0,0,0
3-methylhexanal,305.75,1,CCCC(C)CC=O,0,0,0,0
3-chloro-3-methylpentane,282.55,1,CCC(C)(Cl)CC,0,0,0,0
2fluoro2methylpropane,260.95,1,CC(C)(C)F,0,0,0,0
Cyclohexyl ,488.05,1,[CH]1CCCCC1,0,0,0,0
4chlorophenylisocyanate,383.15,1,O=C=Nc1ccc(Cl)cc1,0,0,0,0
"Pyridine, 2-amino-3-methyl-",383.05,1,Cc1cccnc1N,0,0,0,0
Trichloro(dichlorophenyl)silane,419.15,1,Clc1cccc([Si](Cl)(Cl)Cl)c1Cl,1,1,0,0
ALLYLDICHLOROSILANE,269.15,1,C=CC[SiH](Cl)Cl,1,1,0,0
ethenylnorbornene,300,1,C=CC1CC2C=CC1C2,0,0,0,0
isophorone,357,1,CC1=CC(=O)CC(C)(C)C1,0,0,0,0
2-methylaziridine,269.15,1,CC1CN1,0,0,0,0
1iodobutane,306.15,1,CCCCI,0,0,0,0
DIISOBUTYL ETHER,281.1,1,CC(C)COCC(C)C,0,0,0,0
p-TOLUALDEHYDE,353,1,Cc1ccc(C=O)cc1,0,0,0,0
2chloro1propanol,324.85,1,CC(Cl)CO,0,0,0,0
non-3-yne,310.75,1,CCC#CCCCCC,0,0,0,0
"2,2-Dimethylpropane",208,1,CC(C)(C)C,0,0,0,0
"Benzenamine, 3,4-dichloro-",439.15,1,Nc1ccc(Cl)c(Cl)c1,0,0,0,0
"ethane-1,2-diol",384.15,1,C(CO)O,0,0,0,0
2chloroethylacetate,339.25,1,CC(=O)OCCCl,0,0,0,0
"1,3-Propanediamine, N,N-diethyl-",326.15,1,CCN(CC)CCCN,0,0,0,0
1-propan-2-yloxybutane,280.45,1,CCCCOC(C)C,0,0,0,0
1phenyl1butanone,361,1,CCCC(=O)c1ccccc1,0,0,0,0
Furfurylacetate,358.15,1,O=C([O-])CCc1ccco1,0,0,0,0
3methyl2pentene,267,1,CC=C(C)CC,0,0,0,0
cyclohexene oxide,297,1,C1CCC2OC2C1,0,0,0,0
1-chlorododecane,386.15,1,CCCCCCCCCCCCCl,0,0,0,0
ChloromethylTrimethylSilane-,271.15,1,C[Si](C)(C)CCl,1,1,0,0
3ethyl1heptanol,363.15,1,CCCCC(CC)CCO,0,0,0,0
"2,4-dimethyl-1-propan-2-ylbenzene",340.25,1,Cc1ccc(C(C)C)c(C)c1,0,0,0,0
"1,2propadiene",172,1,C=C=C,0,0,0,0
2-butanethiol,250,1,CCC(C)S,0,0,0,0
"3a,4,7,7a-tetrahydro-2-benzofuran-1,3-dione",430.15,1,C1C=CCC2C1C(=O)OC2=O,0,0,0,0
N-ETHYL-2-METHYLALLYLAMINE,280.1,1,C=C(C)CNCC,0,0,0,0
"N,N-dimethylcyclohexanamine",315.15,1,CN(C)C1CCCCC1,0,0,0,0
1-Chlorodecane,356.2,1,CCCCCCCCCCCl,0,0,0,0
5-chloro-1-pentyne,288,1,C#CCCCCl,0,0,0,0
1ethenyl2ethylBenzene,331.15,1,C=Cc1ccccc1CC,0,0,0,0
"1,2,3-trimethylbenzene",317.15,1,CC1=C(C(=CC=C1)C)C,0,0,0,0
2-(oxiran-2-yl)oxirane,318.75,1,C1OC1C1CO1,0,0,0,0
"(Z)-1,2,3-trichloroprop-1-ene",358.15,1,C(C(=CCl)Cl)Cl,0,0,0,0
1bromo4methylBenzene,358.15,1,Cc1ccc(Br)cc1,0,0,0,0
1chloro4ethylbenzene,337.15,1,CCc1ccc(Cl)cc1,0,0,0,0
"2,3-DIMETHYL-2,3-DIPHENYLBUTANE",412,1,CC(C)(c1ccccc1)C(C)(C)c1ccccc1,0,0,0,0
"1,2,4-TRIETHYLBENZENE",353.1,1,CCc1ccc(CC)c(CC)c1,0,0,0,0
Methyltrichlorosilane,276.15,1,C[Si](Cl)(Cl)Cl,1,1,0,0
DiethylDichloroSilane,300.15,1,CC[Si](Cl)(Cl)CC,1,1,0,0
DipropylSulfone,399.15,1,CCCS(=O)(=O)CCC,0,0,0,0
[2-(chloromethoxy)ethyl]trimethylsilane,319.15,1,C[Si](C)(C)CCOCCl,1,1,0,0
prop-2-enoxybenzene,335.95,1,C=CCOc1ccccc1,0,0,0,0
EthylTrimethylSilane,300.15,1,CC[Si](C)(C)C,1,1,0,0
"Propane, 1,2,3-trichloro-",347.15,1,ClCC(Cl)CCl,0,0,0,0
Octyltriethoxysilane,373.15,1,CCCCCCCC[Si](OCC)(OCC)OCC,1,1,0,0
propan-2-yl acetate,275.15,1,CC(C)OC(=O)C,0,0,0,0
 t-Butyltrichlorosilane,294.15,1,CC(C)(C)[Si](Cl)(Cl)Cl,1,1,0,0
"1,3,3a,4,5,6,7,7a-octahydroinden-2-one",352.75,1,O=C1CC2CCCCC2C1,0,0,0,0
BistrimethylsilylCarbodiimide,315.15,1,C[Si](C)(C)N=C=N[Si](C)(C)C,1,1,0,0
thiacyclopentane,286,1,S1CCCC1,0,0,0,0
"cis,trans-2,4-HEXADIENE",266.1,1,C/C=C\C=C\C,0,0,0,0
N-METHYLCYCLOHEXYLAMINE,302.1,1,CNC1CCCCC1,0,0,0,0
"1-tert -butyl-3,5-dimethylbenzene",345,1,Cc1cc(C)cc(C(C)(C)C)c1,0,0,0,0
trans2buten1ol,305.95,1,C/C=C/CO,0,0,0,0
"3-Ethyl-2,2-dimethylhexane",311,1,CCCC(CC)C(C)(C)C,0,0,0,0
n-DODECYLBENZENE,414,1,CCCCCCCCCCCCc1ccccc1,0,0,0,0
2-methylhexanal,305.75,1,CCCCC(C)C=O,0,0,0,0
allylcyclohexane,302,1,C=CCC1CCCCC1,0,0,0,0
2-[2-(2-hydroxypropoxy)propoxy]propan-1-ol,416.483,1,CC(O)COC(C)COC(C)CO,0,0,0,0
"Ethanamine, N-ethyl-N-nitroso-",332.15,1,CCN(CC)N=O,0,0,0,0
[4-(hydroxymethyl)phenyl]methanol,460.95,1,OCc1ccc(CO)cc1,0,0,0,0
DichloromethylBenzene,353.15,1,ClC(Cl)c1ccccc1,0,0,0,0
ChloromethylTrimethoxySilane,299.15,1,CO[Si](CCl)(OC)OC,1,1,0,0
decylcyclohexane,400.65,1,CCCCCCCCCCC1CCCCC1,0,0,0,0
PhenylMethylDiethoxySilane,362.15,1,CCO[SiH](Cc1ccccc1)OCC,1,1,0,0
PhenylAcetate,353.15,1,O=C([O-])Cc1ccccc1,0,0,0,0
 n-Decylmethyldichlorosilane,393.15,1,CCCCCCCCCC[Si](C)(Cl)Cl,1,1,0,0
"1-Propanamine, 2-methyl-N,N-bis(2-methylpropyl)-",330.35,1,CC(C)CN(CC(C)C)CC(C)C,0,0,0,0
thiophene,264,1,S1C=CC=C1,0,0,0,0
isobutyl ethanoate,291,1,CC(C)COC(=O)C,0,0,0,0
"Diazene, diphenyl-",396.05,1,c1ccc(N=Nc2ccccc2)cc1,0,0,0,0
"2-Propanol, 1-chloro-",324.85,1,CC(O)CCl,0,0,0,0
prop-2-enoyl chloride,289.25,1,C=CC(=O)Cl,0,0,0,0
"1,1-DIETHYLCYCLOHEXANE",322.1,1,CCC1(CC)CCCCC1,0,0,0,0
2-ethyl-N-(2-ethylhexyl)hexan-1-amine,405.15,1,CCCCC(CC)CNCC(CC)CCCC,0,0,0,0
"butane-2,3-diol",358.15,1,CC(C(C)O)O,0,0,0,0
"Decanoic acid, ethyl ester",375.15,1,CCCCCCCCCC(=O)OCC,0,0,0,1
PYRUVIC acid,355.1,1,CC(=O)C(=O)O,0,0,0,1
ethyl prop-2-enoate,282,1,CCOC(=O)C=C,0,0,0,0
"1,4-cyclohexanedimethanol",434,1,OCC1CCC(CO)CC1,0,0,0,0
"3-ethyl-2,3-dimethylpentane",288,1,CCC(C)(CC)C(C)C,0,0,0,0
1-METHYL-3-HYDROXY-6-ISOPROPYL BENZENE,378,1,Cc1cc(O)ccc1C(C)C,0,0,0,0
tetraethyltin,326,1,CC[Sn](CC)(CC)CC,0,1,1,0
cyclobutane,208,1,C1CCC1,0,0,0,0
hex-1-ene,247,1,CCCCC=C,0,0,0,0
"Ethanol, 2-(2-(2-methoxyethoxy)ethoxy)-",391.15,1,COCCOCCOCCO,0,0,0,0
2iodotoluene,363.15,1,Cc1ccccc1I,0,0,0,0
 Tetra-n-propoxysilane,368.15,1,CCCO[Si](OCCC)(OCCC)OCCC,1,1,0,0
3bromopropylTrimethoxySilane,355.15,1,CO[Si](CCCBr)(OC)OC,1,1,0,0
"cyclohexane-1,4-dicarboxylic acid",508.15,1,O=C(O)C1CCC(C(=O)O)CC1,0,0,0,1
2-methylthiophene,280,1,Cc1cccs1,0,0,0,0
2pentaneamine,266.45,1,CCCC(C)N,0,0,0,0
pyrimidine,304,1,c1cncnc1,0,0,0,0
"1,3dichloroTetramethylDisiloxane",288.15,1,C[Si](C)(Cl)O[Si](C)(C)Cl,1,1,0,0
2-ethylhexyl prop-2-enoate,355.15,1,CCCCC(CC)COC(=O)C=C,0,0,0,0
"benzene-1,4-diol",438,1,Oc1ccc(O)cc1,0,0,0,0
pent-1-ene,222,1,CCCC=C,0,0,0,0
N-methylacetamide,381.15,1,CC(=O)NC,0,0,0,0
"1,2-Benzenediol, 4-(1,1-dimethylethyl)-",408.65,1,CC(C)(C)c1ccc(O)c(O)c1,0,0,0,0
oxetan-2-one,343.15,1,C1COC1=O,0,0,0,0
methyl acetate,263.15,1,CC(=O)OC,0,0,0,0
IsopropylVinylether,241.15,1,C=COC(C)C,0,0,0,0
"(2S)-butane-1,2,4-triol",385.15,1,OCC[C@H](O)CO,0,0,0,0
1-chloro-2-ethylbenzene,333.15,1,CCc1ccccc1Cl,0,0,0,0
2methyl1Hindene,344.15,1,CC1=Cc2ccccc2C1,0,0,0,0
1-phenylpropan-2-ol,358,1,CC(O)Cc1ccccc1,0,0,0,0
"2,3,5-trimethylheptane",304,1,CCC(C)CC(C)C(C)C,0,0,0,0
2-hydroxypropyl prop-2-enoate,338.15,1,CC(COC(=O)C=C)O,0,0,0,0
1-Chlorotetradecane,403.2,1,CCCCCCCCCCCCCCCl,0,0,0,0
1propanesulfonylchloride,353.15,1,CCCS(=O)(=O)Cl,0,0,0,0
"N,N-diethylformamide",333.15,1,CCN(C=O)CC,0,0,0,0
"(E)-4-(2,6,6-trimethylcyclohex-2-en-1-yl)but-3-en-2-one",391.15,1,CC1=CCCC(C1C=CC(=O)C)(C)C,0,0,0,0
Cyclopropane,178,1,C1CC1,0,0,0,0
1-Naphthalenamine,425.25,1,Nc1cccc2ccccc12,0,0,0,0
"1-(Trimethylsiloxy)-1,3-butadiene",298.15,1,C=CC=CO[Si](C)(C)C,1,1,0,0
Dichloroethylsilane,263.75,1,[SiH3]CC(Cl)Cl,1,1,0,0
"1-chloro-1,2,2-trifluoroethene",245.15,1,FC(F)=C(F)Cl,0,0,0,0
N-(Trimethylsilyl)morpholine,300.15,1,C[Si](C)(C)N1CCOCC1,1,1,0,0
1-ethenoxypropane,247.05,1,C=COCCC,0,0,0,0
methylsulfanylethane,258.15,1,CCSC,0,0,0,0
2methylcyclohexanol,331,1,CC1CCCCC1O,0,0,0,0
Dibutyl oxalate,377.15,1,CCCCOC(=O)C(=O)OCCCC,0,0,0,0
Fluorocyclohexane,278,1,FC1CCCCC1,0,0,0,0
n-Octyltrichlorosilane,369.15,1,CCCCCCCC[Si](Cl)(Cl)Cl,1,1,0,0
1-cyclohexyl-2-pyrrolidinone,418.15,1,O=C1CCCN1C1CCCCC1,0,0,0,0
1-Octadecanamine,421.15,1,CCCCCCCCCCCCCCCCCCN,0,0,0,0
2isopropylbiphenyl,413.75,1,CC(C)c1ccccc1-c1ccccc1,0,0,0,0
DiethylPhosphate,364.15,1,CCOP(=O)([O-])OCC,0,0,0,0
"2,2dimethylpropanenitrile",277,1,CC(C)(C)C#N,0,0,0,0
Carbon disulphide,243.15,1,S=C=S,0,0,0,0
METHYL GLYCOLATE,339.1,1,COC(=O)CO,0,0,0,0
VinylTrimethylSilane-,253.15,1,C=C[Si](C)(C)C,1,1,0,0
hex-3-en-1-ol,403.15,1,CCC=CCCO,0,0,0,0
3chloropropylTriethoxySilane,335.15,1,CCO[Si](CCCCl)(OCC)OCC,1,1,0,0
1-isobutyl-2-methylbenzene,341.8,1,Cc1ccccc1CC(C)C,0,0,0,0
cyclopentene,244,1,C1CC=CC1,0,0,0,0
1-methyl-2-ethenylbenzene,320,1,C=Cc1ccccc1C,0,0,0,0
"Dichloromethyl-3,3,3-trifluoropropylsilane",288.15,1,FC(F)(F)CC[SiH2]C(Cl)Cl,1,1,0,0
 Pentamethyldisiloxane,254.15,1,C[SiH](C)O[Si](C)(C)C,1,1,0,0
Trimethyl(vinyloxy)silane,263.15,1,C=CO[Si](C)(C)C,1,1,0,0
3methyl2butanethiol,292,1,CC(C)C(C)S,0,0,0,0
"(2,2-dimethylpropyl)benzene",323,1,CC(C)(C)Cc1ccccc1,0,0,0,0
cyclobutylamine,269,1,NC1CCC1,0,0,0,0
"1-Pentanol, 2,2,4-trimethyl-",329.75,1,CC(C)CC(C)(C)CO,0,0,0,0
"N,N-dimethylcarbamoyl chloride",341.15,1,CN(C)C(=O)Cl,0,0,0,0
methylcyclohexanecarboxylate,333,1,COC(=O)C1CCCCC1,0,0,0,0
1ethylpiperidine,291,1,CCN1CCCCC1,0,0,0,0
Cyclopentanethiol,298,1,SC1CCCC1,0,0,0,0
"2,4-Dichlorophenol",387.15,1,Oc1ccc(Cl)cc1Cl,0,0,0,0
trans-2-hexene,246,1,C/C=C/CCC,0,0,0,0
2-[(2-methylpropan-2-yl)oxymethyl]oxirane,316.15,1,CC(C)(C)OCC1CO1,0,0,0,0
DodecamethylCyclohexasiloxane,366.15,1,C[Si]1(C)O[Si](C)(C)O[Si](C)(C)O[Si](C)(C)O[Si](C)(C)O[Si](C)(C)O1,1,1,0,0
Trimethoxymethane,288,1,COC(OC)OC,0,0,0,0
Ethynylbenzene,304.15,1,C#Cc1ccccc1,0,0,0,0
"Heptane, 1-chloro-5-methyl-",325.65,1,CCC(C)CCCCCl,0,0,0,0
n-Octylsilane,309.15,1,CCCCCCCC[SiH3],1,1,0,0
t-Butoxytrimethylsilane,287.15,1,CC(C)(C)O[Si](C)(C)C,1,1,0,0
"Methanesulfonic acid, 1,1,1-trifluoro-, methyl ester",311.483,1,COS(=O)(=O)C(F)(F)F,0,0,0,1
"2,5dimethoxychlorobenzene",390.35,1,COc1ccc(OC)c(Cl)c1,0,0,0,0
"Benzene, 1-methyl-4-(1,1-dimethylethyl)- (9CI)",327.55,1,Cc1ccc(C(C)(C)C)cc1,0,0,0,0
"cis-1,3-dimethylcyclohexane",278,1,C[C@H]1CCC[C@@H](C)C1,0,0,0,0
Bromoform,356,1,BrC(Br)Br,0,0,0,0
"1,2-Benzenedicarboxylic acid, 1,2-diheptyl ester",484.45,1,CCCCCCCOC(=O)c1ccccc1C(=O)OCCCCCCC,0,0,0,1
2-methyloctane,297,1,CC(C)CCCCCC,0,0,0,0
"1,4-DICHLORO-trans-2-BUTENE",326.1,1,ClC/C=C/CCl,0,0,0,0
"Cyclohexane, bromo-",335.95,1,BrC1CCCCC1,0,0,0,0
"Urea, N'-(chlorobicyclo(2.2.1)hept-2-yl)-N,N-dimethyl-",468.05,1,CN(C)C(=O)NC1CC2CCC1(Cl)C2,0,0,0,0
"Acetic acid, decyl ester",374.45,1,CCCCCCCCCCOC(C)=O,0,0,0,1
"2,4hexadiene-",266.15,1,CC=CC=CC,0,0,0,0
2-(ethylamino)ethanol,344.15,1,CCNCCO,0,0,0,0
ISOQUINOLINE,380.1,1,c1ccc2cnccc2c1,0,0,0,0
styrene,304,1,C=CC1=CC=CC=C1,0,0,0,0
EthylDimethylSilane-,248.15,1,CC[SiH](C)C,1,1,0,0
"(3E)-penta-1,3-diene",244.15,1,CC=CC=C,0,0,0,0
"1,3,5-trimethylbenzene",323.15,1,CC1=CC(=CC(=C1)C)C,0,0,0,0
"Ethanol, 2,2,2-trifluoro-",302.55,1,OCC(F)(F)F,0,0,0,0
"1-ethyl-3,5-dimethylbenzene",330.5,1,CCc1cc(C)cc(C)c1,0,0,0,0
n-BUTYL VALERATE,336,1,CCCCOC(=O)CCCC,0,0,0,0
BenzylTrichloroSilane,360.15,1,Cl[Si](Cl)(Cl)Cc1ccccc1,1,1,0,0
"methyl (2E,4E)-hexa-2,4-dienoate",336.25,1,C/C=C/C=C/C(=O)OC,0,0,0,0
8-methyl-8-azabicyclo[3.2.1]octan-3-ol,385.65,1,CN1C2CCC1CC(O)C2,0,0,0,0
"1-Propene, 2,3-dichloro-",283.15,1,C=C(Cl)CCl,0,0,0,0
9decen1ol,392,1,C=CCCCCCCCCO,0,0,0,0
Tri-n-propylchlorosilane,349.15,1,CCC[Si](Cl)(CCC)CCC,1,1,0,0
hydroxyacetaldehyde,360.15,1,O=CCO,0,0,0,0
3iodo1propene,291,1,C=CCI,0,0,0,0
Ethylacetylglycolate,355.15,1,CCCC(=O)C(O)C(=O)[O-],0,0,0,0
"2,3pentadiene-",236.15,1,CC=C=CC,0,0,0,0
DIPROPYLENE GLYCOL MONOMETHYL ETHER ACETATE,359,1,COC(C)COC(C)COC(C)=O,0,0,0,0
ethyl propanoate,285.15,1,CCC(=O)OCC,0,0,0,0