compound,flashpoint,pure substance,smiles,is_silicon,is_metallic,is_tin,is_acid
"2-Quinolinecarboxylic acid, 4,8-dihydroxy- (9CI)",478.95,1,O=C(O)c1cc(O)c2cccc(O)c2n1,0,0,0,1
4-methylanisole,326,1,CC1=CC=C(C=C1)OC,0,0,0,0
(3-cyclohexyl-2-methylpropyl)cyclohexane,399.85,1,CC(CC1CCCCC1)CC1CCCCC1,0,0,0,0
"Benzene, 1,4-dibromo-",362.45,1,Brc1ccc(Br)cc1,0,0,0,0
"Benzeneethanamine, N-ethyl-alpha-methyl-3-(trifluoromethyl)- (9CI)",373.95,1,CCNC(C)Cc1cccc(C(F)(F)F)c1,0,0,0,0
"Arsine oxide, hydroxydimethyl- (8CI)",382.55,1,C[As](C)(=O)O,0,1,0,0
3-ethoxybenzaldehyde,379.75,1,CCOc1cccc(C=O)c1,0,0,0,0
"Phenol, 3-methyl-4-nitro-",383.15,1,Cc1cc(O)ccc1[N+](=O)[O-],0,0,0,0
"Propanedioic acid, chloro-, diethyl ester",376.45,1,CCOC(=O)C(Cl)C(=O)OCC,0,0,0,1
3-ethyl-5-methylphenol,376.65,1,CCc1cc(C)cc(O)c1,0,0,0,0
[(S)-cyano-(3-phenoxyphenyl)methyl] (2S)-2-(4-chlorophenyl)-3-methylbutanoate,529.15,1,CC(C)C(C1=CC=C(C=C1)Cl)C(=O)OC(C#N)C2=CC(=CC=C2)OC3=CC=CC=C3,0,0,0,0
1-fluoro-3-methylbenzene,282.15,1,CC1=CC(=CC=C1)F,0,0,0,0
cyclopentanecarbaldehyde,309.15,1,O=CC1CCCC1,0,0,0,0
"1,3,6-Thiadiazepine-2,7-dithione, tetrahydro-",395.05,1,S=C1NCCNC(=S)S1,0,0,0,0
"Phosphorothioic acid, O,O-dimethyl S-(2-(methylthio)ethyl) ester",390.45,1,COP(=O)(OC)SCCSC,0,0,0,1
(2-acetyloxy-3-hydroxypropyl) acetate,373.35,1,CC(=O)OCC(CO)OC(C)=O,0,0,0,0
"Phenol, 3,4,5-trichloro-2,6-dimethoxy-",430.85,1,COc1c(O)c(OC)c(Cl)c(Cl)c1Cl,0,0,0,0
"2,2,6,6-tetramethylpiperidine",297.55,1,CC1(C)CCCC(C)(C)N1,0,0,0,0
4-methoxybenzoic acid,388.61,1,COc1ccc(C(=O)O)cc1,0,0,0,1
5-methylhept-1-ene,288.65,1,C=CCCC(C)CC,0,0,0,0
tris(2-methylphenyl) phosphate,498.15,1,CC1=CC=CC=C1OP(=O)(OC2=CC=CC=C2C)OC3=CC=CC=C3C,0,0,0,0
"Phenol, 4-(phenylamino)-",419.35,1,Oc1ccc(Nc2ccccc2)cc1,0,0,0,0
1-isocyanobutane,293.75,1,[C-]#[N+]CCCC,0,0,0,0
"6-chloro-3-(diethoxyphosphinothioylsulfanylmethyl)-1,3-benzoxazol-2-one",373.15,1,CCOP(=S)(OCC)SCN1C2=C(C=C(C=C2)Cl)OC1=O,0,0,0,0
3-methylbut-2-en-1-ol,323.15,1,CC(=CCO)C,0,0,0,0
"1,4-Benzenediamine, N,N'-di-2-naphthalenyl-",672.15,1,c1ccc2cc(Nc3ccc(Nc4ccc5ccccc5c4)cc3)ccc2c1,0,0,0,0
"trans-1,4-dimethylcyclohexane",284,1,C[C@@H]1CC[C@@H](C)CC1,0,0,0,0
"3,5-dimethylaniline",366.15,1,CC1=CC(=CC(=C1)N)C,0,0,0,0
"Ethanol, 2,2,2-tribromo-",372.85,1,OCC(Br)(Br)Br,0,0,0,0
"6H-Purine-6-thione, 2-amino-1,7-dihydro-",562.85,1,Nc1nc2nc[nH]c2c(=S)[nH]1,0,0,0,0
5-methyl-1H-imidazole,430.15,1,CC1=CN=CN1,0,0,0,0
"ethyl 1,3-benzodioxole-5-carboxylate",397.25,1,CCOC(=O)c1ccc2c(c1)OCO2,0,0,0,0
"7-Oxabicyclo(4.1.0)heptane, 1-methyl-4-(2-methyloxiranyl)-",373.55,1,CC1(C2CCC3(C)OC3C2)CO1,0,0,0,0
2-methylbenzenethiol,337.05,1,Cc1ccccc1S,0,0,0,0
"2,4,4-trimethylcyclopentanone",316,1,CC1C(CC(C1)(C)C)=O,0,0,0,0
L-Ascorbic acid,453.55,1,O=C1O[C@H]([C@@H](O)CO)C(O)=C1O,0,0,0,1
furan-2-carbaldehyde,333.15,1,C1=COC(=C1)C=O,0,0,0,0
"Acetamide, N-ethenyl-N-methyl-",336.05,1,C=CN(C)C(C)=O,0,0,0,0
"Butanamide, N-(4-ethoxyphenyl)-3-oxo-",479.95,1,CCOc1ccc(NC(=O)CC(C)=O)cc1,0,0,0,0
"Benzeneacetamide, N-ethyl-alpha-(hydroxymethyl)-N-(4-pyridinylmethyl)-",524.95,1,CCN(Cc1ccncc1)C(=O)C(CO)c1ccccc1,0,0,0,0
"4,6-dimethylpyran-2-one",363.25,1,Cc1cc(C)oc(=O)c1,0,0,0,0
"Benzenamine, 4-methyl-N-(4-nitrophenyl)-",468.15,1,Cc1ccc(Nc2ccc([N+](=O)[O-])cc2)cc1,0,0,0,0
"Pyridine, 2,6-diphenyl-",439.55,1,c1ccc(-c2cccc(-c3ccccc3)n2)cc1,0,0,0,0
ethenyl butanoate,293.15,1,CCCC(=O)OC=C,0,0,0,0
VINYLFERROCENE,335.15,1,C=C[c-]1cccc1.[Fe+2].c1cc[cH-]c1,0,1,0,0
propan-2-yl 2-methylprop-2-enoate,294.15,1,CC(C)OC(=O)C(=C)C,0,0,0,0
3-Aminodibenzofuran,450.15,1,Nc1ccc2c(c1)oc1ccccc12,0,0,0,0
7-methyl-1H-indene,348.05,1,Cc1cccc2c1CC=C2,0,0,0,0
cyclohexanol,336,1,C1(CCCCC1)O,0,0,0,0
1-bromo-3-ethylbenzene,344,1,BrC1=CC(=CC=C1)CC,0,0,0,0
"Quinoline, 5-fluoro-",371.15,1,Fc1cccc2ncccc12,0,0,0,0
"Benzeneethanamine, N-methyl- (9CI)",347.05,1,CNCCc1ccccc1,0,0,0,0
"3-chloropropane-1,2-diol",332.15,1,C(C(CCl)O)O,0,0,0,0
"Acetamide, N-hydroxy-N-phenyl-",389.95,1,CC(=O)N(O)c1ccccc1,0,0,0,0
"Pyridine, 3-phenyl-",392.447,1,c1ccc(-c2cccnc2)cc1,0,0,0,0
"Propionic acid, hexyl ester (6CI,7CI,8CI)",338.15,1,CCCCCCOC(=O)CC,0,0,0,1
"Phosphoric acid, 2,4-dichlorophenyl dimethyl ester",439.65,1,COP(=O)(OC)Oc1ccc(Cl)cc1Cl,0,0,0,1
isobutylvinylether,264,1,C(C(C)C)OC=C,0,0,0,0
2-chloropropan-1-ol,325.15,1,CC(CO)Cl,0,0,0,0
"(2,5-dioxo-3-prop-2-ynylimidazolidin-1-yl)methyl 2,2-dimethyl-3-(2-methylprop-1-enyl)cyclopropane-1-carboxylate",383.15,1,CC(=CC1C(C1(C)C)C(=O)OCN2C(=O)CN(C2=O)CC#C)C,0,0,0,0
4-butylpyridine,354.821,1,CCCCc1ccncc1,0,0,0,0
"Benzenesulfonic acid, 4-((methoxycarbonyl)amino)-, hydrazide (9CI)",549.35,1,COC(=O)Nc1ccc(S(=O)(=O)NN)cc1,0,0,0,1
"3,3,4,4,5,5,6,6,6-nonafluorohex-1-ene",256.15,1,C=CC(C(C(C(F)(F)F)(F)F)(F)F)(F)F,0,0,0,0
"1-Butanol, 1,1',1''-phosphinidynetri- (9CI)",394.25,1,CCCC(O)P(C(O)CCC)C(O)CCC,0,0,0,0
N-ethylcyclohexanamine,318,1,C(C)NC1CCCCC1,0,0,0,0
Spiro(5.5)undecane,344.95,1,C1CCC2(CC1)CCCCC2,0,0,0,0
1-chloro-3-isothiocyanatobenzene,390.55,1,S=C=Nc1cccc(Cl)c1,0,0,0,0
fluorobenzene,258.15,1,C1=CC=C(C=C1)F,0,0,0,0
"Propylamine, N-ethyl-1,2-dimethyl- (7CI)",278.75,1,CCNC(C)C(C)C,0,0,0,0
tetramethoxymethane,279.85,1,COC(OC)(OC)OC,0,0,0,0
"5-methyl-1,2-oxazole",303.15,1,Cc1ccno1,0,0,0,0
"Benzenethiol, 2,3,4,5,6-pentachloro-",417.75,1,Sc1c(Cl)c(Cl)c(Cl)c(Cl)c1Cl,0,0,0,0
cis-2-methylcyclohexanol,332,1,C[C@@H]1[C@@H](CCCC1)O,0,0,0,0
bis(trichloromethyl) carbonate,326.45,1,O=C(OC(Cl)(Cl)Cl)OC(Cl)(Cl)Cl,0,0,0,0
"1,3-Benzenediol, monobenzoate",439.35,1,O=C(Oc1cccc(O)c1)c1ccccc1,0,0,0,0
"2,3-bis[[(Z)-octadec-9-enoyl]oxy]propyl (Z)-octadec-9-enoate",575.75,1,CCCCCCCC/C=C\CCCCCCCC(=O)OCC(COC(=O)CCCCCCC/C=C\CCCCCCCC)OC(=O)CCCCCCC/C=C\CCCCCCCC,0,0,0,0
phenyl(pyridin-2-yl)methanone,427.05,1,O=C(c1ccccc1)c1ccccn1,0,0,0,0
"Urea, 1-phenyl-2-thio-",388.25,1,NC(=S)Nc1ccccc1,0,0,0,0
trans-2-EICOSENE,420,1,C/C=C/CCCCCCCCCCCCCCCCC,0,0,0,0
ethyl furan-2-carboxylate,343.15,1,CCOC(=O)c1ccco1,0,0,0,0
tridecane-1-thiol,385.55,1,CCCCCCCCCCCCCS,0,0,0,0
"2-Hexen-1-ol, acetate, (2E)-",331.15,1,CCC/C=C/COC(C)=O,0,0,0,0
"1,4-Phthalazinedione, 2,3-dihydro-",543.55,1,O=c1[nH][nH]c(=O)c2ccccc12,0,0,0,0
2-(4-Chlorophenyl)-2-methyloxirane,370.05,1,CC1(c2ccc(Cl)cc2)CO1,0,0,0,0
2-Chloro-2-methylheptane,320.3,1,CCCCCC(C)(C)Cl,0,0,0,0
chlorocyclohexane,305.15,1,C1CCC(CC1)Cl,0,0,0,0
diethyl 2-oxopropanedioate,363.35,1,CCOC(=O)C(=O)C(=O)OCC,0,0,0,0
"Naphthalene, 1,6,7-trimethyl- (8CI)(9CI)",400.95,1,Cc1cc2cccc(C)c2cc1C,0,0,0,0
"Benz(a)anthracene, 7-ethyl-",496.75,1,CCc1c2ccccc2cc2c1ccc1ccccc12,0,0,0,0
"1,1,3-trichlorobutane",344.95,1,CC(Cl)CC(Cl)Cl,0,0,0,0
(3-ACRYLOXYPROPYL)DIMETHYLMETHOXYSILANE,358.15,1,C=CC(=O)OCCC[Si](C)(C)OC,1,1,0,0
"1-Propanone, 1-(2,4,6-trihydroxyphenyl)-",447.85,1,CCC(=O)c1c(O)cc(O)cc1O,0,0,0,0
"Quinoline, 2-amino-",436.75,1,Nc1ccc2ccccc2n1,0,0,0,0
"1,3,5-Triazine, 2,4,6-tris(1-aziridinyl)-",487.15,1,C1CN1c1nc(N2CC2)nc(N2CC2)n1,0,0,0,0
"2,5-dichlorobenzaldehyde",369.75,1,O=Cc1cc(Cl)ccc1Cl,0,0,0,0
"2,5-dimethylbenzene-1,3-diol",413.95,1,Cc1cc(O)c(C)c(O)c1,0,0,0,0
4-methyl-1H-indole,387.25,1,Cc1cccc2[nH]ccc12,0,0,0,0
"Urea, 1-(o-chlorophenyl)-2-thio-",404.25,1,NC(=S)Nc1ccccc1Cl,0,0,0,0
"(4Z)-hexa-1,4-diene",248,1,C=CC/C=C\C,0,0,0,0
"Benzenemethanol, alpha-((1S)-1-(methylamino)ethyl)-, (alphaR)-",358.15,1,CN[C@@H](C)[C@H](O)c1ccccc1,0,0,0,0
"10H-Phenothiazine-10-propanamine, N,N-dimethyl- (9CI)",476.55,1,CN(C)CCCN1c2ccccc2Sc2ccccc21,0,0,0,0
"Heptadecanoic acid, 16-methyl-",498.75,1,CC(C)CCCCCCCCCCCCCCC(=O)O,0,0,0,1
"2,3-dichloroaniline",388.15,1,Nc1cccc(Cl)c1Cl,0,0,0,0
"2-Propen-1-one, 3-(4-fluorophenyl)-1-phenyl- (9CI)",430.45,1,O=C(C=Cc1ccc(F)cc1)c1ccccc1,0,0,0,0
1-bromo-3-methylcyclohexane,338.65,1,CC1CCCC(Br)C1,0,0,0,0
"1-methoxy-3,5-dimethylbenzene",338.15,1,COc1cc(C)cc(C)c1,0,0,0,0
"2,4,4-trimethylcyclopentan-1-one",318.55,1,CC1CC(C)(C)CC1=O,0,0,0,0
"Benzenamine, 2-methoxy-4-nitro-",447.15,1,COc1cc([N+](=O)[O-])ccc1N,0,0,0,0
"5H-Dibenz(b,f)azepine-5-propanamine, 10,11-dihydro-N,N-dimethyl- (9CI)",452.85,1,CN(C)CCCN1c2ccccc2CCc2ccccc21,0,0,0,0
"Ethanol, 2-(4-chloro-3,5-dimethylphenoxy)- (9CI)",421.95,1,Cc1cc(OCCO)cc(C)c1Cl,0,0,0,0
benzylchloride,333,1,C(C1=CC=CC=C1)Cl,0,0,0,0
"Benzene, (2-bromoethenyl)-",374.85,1,BrC=Cc1ccccc1,0,0,0,0
3-chloro-2-methyl-1-propene,261,1,ClCC(=C)C,0,0,0,0
"1-Butanol, 4-bromo-, acetate",382.15,1,CC(=O)OCCCCBr,0,0,0,0
diethoxy-(4-nitrophenoxy)-sulfanylidene-λ5-phosphane,393.15,1,CCOP(=S)(OCC)OC1=CC=C(C=C1)[N+](=O)[O-],0,0,0,0
"Phenol, 3-(dimethylamino)-",405.85,1,CN(C)c1cccc(O)c1,0,0,0,0
1-TRIACONTENE,517,1,C=CCCCCCCCCCCCCCCCCCCCCCCCCCCCC,0,0,0,0
methyl 3-methoxybenzoate,366.95,1,COC(=O)c1cccc(OC)c1,0,0,0,0
"Pyridine, 4,4'-(1,2-ethanediyl)bis-",390.35,1,c1cc(CCc2ccncc2)ccn1,0,0,0,0
diethyl 2-methylbutanedioate,370.45,1,CCOC(=O)CC(C)C(=O)OCC,0,0,0,0
"Benzeneacetonitrile, alpha-methyl-",367.05,1,CC(C#N)c1ccccc1,0,0,0,0
"Pyren-6-ol, 1-nitro-",491.45,1,O=[N+]([O-])c1ccc2ccc3c(O)ccc4ccc1c2c43,0,0,0,0
"4H-Pyrrolo(2,3-d)pyrimidin-4-one, 1,7-dihydro-7-beta-D-ribofuranosyl-",604.85,1,O=c1nc[nH]c2c1ccn2[C@@H]1O[C@H](CO)[C@@H](O)[C@H]1O,0,0,0,0
"1,2-Benzenedicarboxylic acid, mono(2-ethylhexyl) ester (9CI)",417.25,1,CCCCC(CC)COC(=O)c1ccccc1C(=O)[O-],0,0,0,1
BENZANTHRACENE,508,1,c1ccc2cc3c(ccc4ccccc43)cc2c1,0,0,0,0
2-methylpropyl pentanoate,332.55,1,CCCCC(=O)OCC(C)C,0,0,0,0
"Anthracene, 1-methyl- (8CI)(9CI)",430.65,1,Cc1cccc2cc3ccccc3cc12,0,0,0,0
"1,3-dimethyl-2-nitrobenzene",361.15,1,CC1=C(C(=CC=C1)C)[N+](=O)[O-],0,0,0,0
"ethyl (2E,4Z)-deca-2,4-dienoate",386,1,CCCCC/C=C\C=C\C(=O)OCC,0,0,0,0
2-bromotoluene,351,1,BrC1=C(C)C=CC=C1,0,0,0,0
"1H-Imidazol-2-amine, N-(2,6-dichlorophenyl)-4,5-dihydro-",420.05,1,Clc1cccc(Cl)c1NC1=NCCN1,0,0,0,0
2-(butoxymethyl)furan,347.75,1,CCCCOCc1ccco1,0,0,0,0
ALLYLTRIISOPROPYLSILANE,349.15,1,C=CC[Si](C(C)C)(C(C)C)C(C)C,1,1,0,0
"2-Naphthalenol, 1,2,3,4-tetrahydro- (9CI)",371.55,1,OC1CCc2ccccc2C1,0,0,0,0
m-propyltoluene,325,1,C(CC)C=1C=C(C)C=CC1,0,0,0,0
"1,2-dichloro-4-(chloromethyl)benzene",433.35,1,ClCc1ccc(Cl)c(Cl)c1,0,0,0,0
"1-methyl-2,3,4-trinitrobenzene",504.65,1,Cc1ccc([N+](=O)[O-])c([N+](=O)[O-])c1[N+](=O)[O-],0,0,0,0
"2,5-Cyclohexadiene-1,4-dione, 2,6-dimethyl- (9CI)",344.25,1,CC1=CC(=O)C=C(C)C1=O,0,0,0,0
1-tridecyne,366,1,C#CCCCCCCCCCCC,0,0,0,0
"Phosphoric acid, dibutyl ester",393.45,1,CCCCOP(=O)([O-])OCCCC,0,0,0,1
1-(furan-2-yl)-N-methylmethanamine,307.15,1,CNCc1ccco1,0,0,0,0
"Benzenamine, 2,4,6-trinitro-N-(2,4,6-trinitrophenyl)-",549.05,1,O=[N+]([O-])c1cc([N+](=O)[O-])c(Nc2c([N+](=O)[O-])cc([N+](=O)[O-])cc2[N+](=O)[O-])c([N+](=O)[O-])c1,0,0,0,0
8-methyl-8-azabicyclo[3.2.1]octan-3-one,363.15,1,CN1C2CCC1CC(=O)C2,0,0,0,0
trans-decalin,326,1,C1CCC[C@@H]2CCCC[C@@H]12,0,0,0,0
undecyl ethanoate,398,1,CCCCCCCCCCCOC(=O)C,0,0,0,0
2-piperidin-4-ylethanol,374.85,1,OCCC1CCNCC1,0,0,0,0
"Phenol, 2,4-dichloro-6-nitro-",373.75,1,O=[N+]([O-])c1cc(Cl)cc(Cl)c1O,0,0,0,0
2-(2-methoxypropoxy)propan-1-ol,347.15,1,CC(CO)OCC(C)OC,0,0,0,0
2-ethoxyethylacetate,324,1,C(C)OCCOC(C)=O,0,0,0,0
"2,4-dichloro-5-methylpyrimidine",391.65,1,Cc1cnc(Cl)nc1Cl,0,0,0,0
"2,5-Norbornadiene, 1,2,3,4,7,7-hexachloro- (8CI)",407.75,1,ClC1=C(Cl)C2(Cl)C=CC1(Cl)C2(Cl)Cl,0,0,0,0
N-ethyl-N-propan-2-ylpropan-2-amine,283.75,1,CCN(C(C)C)C(C)C,0,0,0,0
TRIMETHYLBROMOGERMANE,310.15,1,C[Ge](C)(C)Br,0,1,0,0
1-chloro-4-isocyanatobenzene,383.15,1,C1=CC(=CC=C1N=C=O)Cl,0,0,0,0
3-methylbutoxymethylbenzene,366.85,1,CC(C)CCOCc1ccccc1,0,0,0,0
"Hexane-1,6-dithiol",363.75,1,SCCCCCCS,0,0,0,0
"p-Toluic acid, 3-nitro- (8CI)",432.15,1,Cc1ccc(C(=O)O)c([N+](=O)[O-])c1,0,0,0,1
"cycloocta-1,5-diene",308,1,C1C=CCCC=CC1,0,0,0,0
methyl tridecanoate,386,1,CCCCCCCCCCCCC(=O)OC,0,0,0,0
"Benzene, 1-ethoxy-2-methyl-",337.35,1,CCOc1ccccc1C,0,0,0,0
1-methoxy-4-prop-2-enylbenzene,354.15,1,COC1=CC=C(C=C1)CC=C,0,0,0,0
"9H-Carbazole, 9-methyl- (9CI)",431.25,1,Cn1c2ccccc2c2ccccc21,0,0,0,0
"1,1,2,3,4,4-hexachlorobuta-1,3-diene",363.15,1,C(=C(Cl)Cl)(C(=C(Cl)Cl)Cl)Cl,0,0,0,0
"3,3,4,4,5,5-hexafluorooxane-2,6-dione",276.45,1,O=C1OC(=O)C(F)(F)C(F)(F)C1(F)F,0,0,0,0
2-butanol,297,1,CC(CC)O,0,0,0,0
"(E)-3-(5-methyl-2,4-dioxopyrimidin-1-yl)prop-2-enal",480.15,1,CC1=CN(C(=O)NC1=O)C=CC=O,0,0,0,0
2-Naphthalenecarboxylic acid,424.45,1,O=C(O)c1ccc2ccccc2c1,0,0,0,1
3-chloropropanoyl chloride,334.85,1,O=C(Cl)CCCl,0,0,0,0
"1,2,3,6-tetrahydropyridine",289.25,1,C1=CCNCC1,0,0,0,0
"1,3-dichlorobutane",304,1,ClCCC(C)Cl,0,0,0,0
decanoyl chloride,379.25,1,CCCCCCCCCC(=O)Cl,0,0,0,0
"1,3-propanediamine",321,1,C(CCN)N,0,0,0,0
2-heptanol,332,1,CC(CCCCC)O,0,0,0,0
1H-Indole,380.989,1,c1ccc2[nH]ccc2c1,0,0,0,0
"4-Decen-3-one, 1-(4-hydroxy-3-methoxyphenyl)-",423.45,1,CCCCCC=CC(=O)CCc1ccc(O)c(OC)c1,0,0,0,0
"1-methyl-3,4-dihydro-2H-quinoline",368.15,1,CN1CCCc2ccccc21,0,0,0,0
2-methylpiperidine,289.15,1,CC1CCCCN1,0,0,0,0
"Glycine, N,N'-1,2-ethanediylbis(N-(carboxymethyl)-",598.35,1,O=C(O)CN(CCN(CC(=O)O)CC(=O)O)CC(=O)O,0,0,0,0
methanedithione,243.15,1,C(=S)=S,0,0,0,0
1-tert-butyl-4-chlorobenzene,358.15,1,CC(C)(C)c1ccc(Cl)cc1,0,0,0,0
"Acetamide, N-hydroxy-N-2-naphthalenyl- (9CI)",456.95,1,CC(=O)N(O)c1ccc2ccccc2c1,0,0,0,0
ethyl 2-acetyl-3-oxobutanoate,358.15,1,CCOC(=O)C(C(C)=O)C(C)=O,0,0,0,0
2-ethylthiophene,294,1,C(C)C=1SC=CC1,0,0,0,0
"2,3-dihydroinden-1-one",384.85,1,O=C1CCc2ccccc21,0,0,0,0
heptylbenzene,368,1,C(CCCCCC)C1=CC=CC=C1,0,0,0,0
2-dimethoxyphosphinothioylsulfanyl-N-methylacetamide,324.15,1,CNC(=O)CSP(=S)(OC)OC,0,0,0,0
"Benzenamine, N,N-dimethyl-4-nitroso-",383.45,1,CN(C)c1ccc(N=O)cc1,0,0,0,0
"1,2,3,4-tetrahydroquinoxaline",449.25,1,c1ccc2c(c1)NCCN2,0,0,0,0
3-bromofuran,276.45,1,Brc1ccoc1,0,0,0,0
"1-Butanol, 4-chloro-",350.35,1,OCCCCCl,0,0,0,0
"Benzoyl chloride, 4-chloro-",378.15,1,O=C(Cl)c1ccc(Cl)cc1,0,0,0,0
2-[(4-tert-butylphenoxy)methyl]oxirane,375.15,1,CC(C)(C)C1=CC=C(C=C1)OCC2CO2,0,0,0,0
N-BENZYL-N-METHOXYMETHYL-N-(TRIMETHYLSILYLMETHYL)AMINE,339.15,1,COCN(Cc1ccccc1)C[Si](C)(C)C,1,1,0,0
bromobenzene,324,1,BrC1=CC=CC=C1,0,0,0,0
"1,4-butanediol",394,1,C(CCCO)O,0,0,0,0
"2-Furancarboxaldehyde, 5-(hydroxymethyl)-",352.55,1,O=Cc1ccc(CO)o1,0,0,0,0
"bis(oxiran-2-ylmethyl) cyclohexane-1,2-dicarboxylate",463.15,1,C1CCC(C(C1)C(=O)OCC2CO2)C(=O)OCC3CO3,0,0,0,0
"Urea, N-methyl-N'-phenyl- (9CI)",372.05,1,CNC(=O)Nc1ccccc1,0,0,0,0
1-ethyl-3-phenylbenzene,398.45,1,CCc1cccc(-c2ccccc2)c1,0,0,0,0
"3-chloro-4,7,7-trimethylbicyclo[2.2.1]heptane",341.15,1,CC1(C)C2CCC1(C)C(Cl)C2,0,0,0,0
"methyl (6E,9Z,12E)-octadeca-6,9,12-trienoate",335,1,CCCCC/C=C/C/C=C\C/C=C/CCCCC(=O)OC,0,0,0,0
Non-2-yn-1-ol,328.05,1,CCCCCCC#CCO,0,0,0,0
"Acetamide, N-(4-(chloroacetyl)phenyl)-",383.15,1,CC(=O)Nc1ccc(C(=O)CCl)cc1,0,0,0,0
"Ethanol, 2-((4-((2,6-dichloro-4-nitrophenyl)azo)phenyl)methylamino)-",568.95,1,O=[N+]([O-])c1cc(Cl)c(N=Nc2ccc(CNCCO)cc2)c(Cl)c1,0,0,0,0
"Hydrazine, 1,1-bis(phenylmethyl)- (9CI)",480.75,1,NN(Cc1ccccc1)Cc1ccccc1,0,0,0,0
"2,5-dimethylhexan-3-one",307.35,1,CC(C)CC(=O)C(C)C,0,0,0,0
"Benzo(1,2-c:3,4-c':5,6-c'')tris(1,2,5)oxadiazole, 1,4,7-trioxide",592.95,1,[O-][n+]1onc2c1c1no[n+]([O-])c1c1no[n+]([O-])c21,0,0,0,0
"2-Butanone, 4-(p-methoxyphenyl)- (6CI,7CI,8CI)",385.15,1,COc1ccc(CCC(C)=O)cc1,0,0,0,0
"1,2,3-TRICHLOROBENZENE",386,1,Clc1cccc(Cl)c1Cl,0,0,0,0
ethylpropyldisulfide,330,1,C(C)SSCCC,0,0,0,0
3-methylaniline,359.15,1,CC1=CC(=CC=C1)N,0,0,0,0
"Tyrosine, 3-nitro-, L- (8CI)",487.95,1,N[C@@H](Cc1ccc(O)c([N+](=O)[O-])c1)C(=O)O,0,0,0,0
3-ethylphenol,367,1,C(C)C=1C=C(C=CC1)O,0,0,0,0
"Benzene, 1-bromo-4-ethyl-",344.35,1,CCc1ccc(Br)cc1,0,0,0,0
"1,5-Naphthalenediamine",493.35,1,Nc1cccc2c(N)cccc12,0,0,0,0
TETRADECYL(TRIHEXYL)PHOSPHONIUM CHLORIDE,391.15,1,CCCCCCCCCCCCCC[P+](CCCCCC)(CCCCCC)CCCCCC.[Cl-],0,0,0,0
"1H-Indene, 2,3-dihydro-1,1,3,3,5-pentamethyl-4,6-dinitro-",418.45,1,Cc1c([N+](=O)[O-])cc2c(c1[N+](=O)[O-])C(C)(C)CC2(C)C,0,0,0,0
decylformate,373,1,C(CCCCCCCCC)OC=O,0,0,0,0
"Isocyanic acid, hexamethylene ester (8CI)",413.15,1,O=C=NCCCCCCN=C=O,0,0,0,1
"4-tert-butylbenzene-1,2-diol",403,1,Oc1ccc(cc1O)C(C)(C)C,0,0,0,0
"(1S,2R)-2-(methylamino)-1-phenylpropan-1-ol",358.75,1,CN[C@H](C)[C@@H](O)c1ccccc1,0,0,0,0
"Isocyanic acid, p-tolyl ester (7CI,8CI)",337.05,1,Cc1ccc(N=C=O)cc1,0,0,0,1
3H-2-benzofuran-1-one,425.15,1,O=C1OCc2ccccc21,0,0,0,0
"Phenol, 4-((4-aminophenyl)azo)-",467.05,1,Nc1ccc(N=Nc2ccc(O)cc2)cc1,0,0,0,0
3-methylthiolane,301.25,1,CC1CCSC1,0,0,0,0
"Cyclotetrasiloxane, 2,4,6,8-tetraethenyl-2,4,6,8-tetramethyl-",367.45,1,C=C[Si]1(C)O[Si](C)(C=C)O[Si](C)(C=C)O[Si](C)(C=C)O1,1,1,0,0
"2,2-dimethylbutane",244,1,CC(C)(CC)C,0,0,0,0
"alpha-D-Glucopyranoside, 1,3,4,6-tetra-O-acetyl-beta-D-fructofuranosyl",548.15,1,CC(=O)OC[C@H]1O[C@@](COC(C)=O)(O[C@H]2O[C@H](CO)[C@@H](O)[C@H](O)[C@H]2O)[C@@H](OC(C)=O)[C@@H]1OC(C)=O,0,0,0,0
diethyl (E)-pent-2-enedioate,379.85,1,CCOC(=O)/C=C/CC(=O)OCC,0,0,0,0
(Z)-octadec-9-en-1-ol,393.85,1,CCCCCCCC/C=C\CCCCCCCCO,0,0,0,0
n-BUTYL NONANOATE,361,1,CCCCCCCCC(=O)OCCCC,0,0,0,0
"Acetamide, N-(3-hydroxyphenyl)-",458.35,1,CC(=O)Nc1cccc(O)c1,0,0,0,0
"6-Chloro-2,6-dimethyloctane",342,1,CCC(C)(Cl)CCCC(C)C,0,0,0,0
2-methyl-1-(2-methylpropylsulfonyl)propane,383.35,1,CC(C)CS(=O)(=O)CC(C)C,0,0,0,0
ethoxybenzene,336.15,1,CCOC1=CC=CC=C1,0,0,0,0
2-hydroxy-5-methoxybenzaldehyde,381.25,1,COc1ccc(O)c(C=O)c1,0,0,0,0
"Piperazine, 2,5-dimethyl-",331.45,1,CC1CNC(C)CN1,0,0,0,0
tris(2-ethylhexyl) phosphite,444.15,1,CCCCC(CC)COP(OCC(CC)CCCC)OCC(CC)CCCC,0,0,0,0
"2,3-dihydro-1H-inden-5-amine",383.15,1,Nc1ccc2c(c1)CCC2,0,0,0,0
"2,3-diethylpyrazine",337.15,1,CCc1nccnc1CC,0,0,0,0
"1H-Purine-2,6-dione, 3,7-dihydro-3,7-dimethyl-1-(5-oxohexyl)-",548.25,1,CC(=O)CCCCn1c(=O)c2c(ncn2C)n(C)c1=O,0,0,0,0
dimethoxy(oxo)phosphanium,302.15,1,CO[P+](=O)OC,0,0,0,0
p-Trifluoromethylbenzyl chloride,347.05,1,FC(F)(F)c1ccc(CCl)cc1,0,0,0,0
"Carbonochloridic acid, 2-ethylhexyl ester",354.85,1,CCCCC(CC)COC(=O)Cl,0,0,0,1
isobutylamine,263,1,C(C(C)C)N,0,0,0,0
"Benzenamine, N-butyl-",380.15,1,CCCCNc1ccccc1,0,0,0,0
"1,3-dichloro-2-methylbenzene",355.15,1,CC1=C(C=CC=C1Cl)Cl,0,0,0,0
2-Bromo-1-(4-hydroxyphenyl)ethan-1-one,431.75,1,O=C(CBr)c1ccc(O)cc1,0,0,0,0
"4-Thiazolecarboxylic acid, 2-amino-4,5-dihydro-",472.45,1,NC1=NC(C(=O)O)CS1,0,0,0,1
"Pregn-4-en-20-yn-3-one, 17-hydroxy-, (17alpha)- (9CI)",463.35,1,C#C[C@@]1(O)CC[C@H]2[C@@H]3CCC4=CC(=O)CC[C@]4(C)[C@H]3CC[C@@]21C,0,0,0,0
"Benzoic acid, 2,5-dihydroxy-",487.15,1,O=C(O)c1cc(O)ccc1O,0,0,0,1
"Benzoic acid, 4-methoxy-, ethyl ester",379.25,1,CCOC(=O)c1ccc(OC)cc1,0,0,0,1
"3-Isoxazolidinone, 2-((2-chlorophenyl)methyl)-4,4-dimethyl-",419.05,1,CC1(C)CON(Cc2ccccc2Cl)C1=O,0,0,0,0
"7-Octen-1-ol, 3,7-dimethyl-, propanoate",362.65,1,C=C(C)CCCC(C)CCOC(=O)CC,0,0,0,0
"Benzoic acid, 2-hydroxy-, 2-methylpropyl ester",383.15,1,CC(C)COC(=O)c1ccccc1O,0,0,0,1
"Formamide, 1,1'-azobis-",399.15,1,NC(=O)N=NC(N)=O,0,0,0,0
"Ethanone, 1-(4-hydroxy-3,5-dimethoxyphenyl)- (9CI)",404.85,1,COc1cc(C(C)=O)cc(OC)c1O,0,0,0,0
"Ethanol, 2,2'-(phenylimino)bis-",473.15,1,OCCN(CCO)c1ccccc1,0,0,0,0
"Butyronitrile, 4-phenyl- (8CI)",404.85,1,N#CCCCc1ccccc1,0,0,0,0
"2,6-dimethylcyclohexan-1-one",326.95,1,CC1CCCC(C)C1=O,0,0,0,0
"Silane, dimethylethoxyphenyl-",346.25,1,CCO[Si](C)(C)c1ccccc1,1,1,0,0
Mesityloxide,305,1,Cc1cc(C)c(Oc2c(C)cc(C)cc2C)c(C)c1,0,0,0,0
"Butanoic acid, 2-hydroxy-4-(methylthio)-",418.35,1,CSCCC(O)C(=O)O,0,0,0,1
vinylpropanoate,279,1,C(=C)OC(CC)=O,0,0,0,0
naphthalene,361.15,1,C1=CC=C2C=CC=CC2=C1,0,0,0,0
dodecylcyclohexane,420.25,1,CCCCCCCCCCCCC1CCCCC1,0,0,0,0
N-(2-phenylphenyl)acetamide,498.65,1,CC(=O)Nc1ccccc1-c1ccccc1,0,0,0,0
2-[2-[2-(2-hydroxyethoxy)ethoxy]ethoxy]-1-methoxyethanol,434.15,1,COC(COCCOCCOCCO)O,0,0,0,0
"4,4-dimethyl-1,3-oxazolidine",322.15,1,CC1(COCN1)C,0,0,0,0
diethyl 2-(3-methylbutyl)propanedioate,382.95,1,CCOC(=O)C(CCC(C)C)C(=O)OCC,0,0,0,0
"1,3-dithiolane-2-thione",412.65,1,S=C1SCCS1,0,0,0,0
2-methylbenzonitrile,357.15,1,CC1=CC=CC=C1C#N,0,0,0,0
"1,2,3,5-TETRAETHYLBENZENE",376,1,CCc1cc(CC)c(CC)c(CC)c1,0,0,0,0
"Phenol, 4,4'-((1E)-1,2-diethyl-1,2-ethenediyl)bis-, dipropanoate",510.15,1,CC/C(=C(/CC)c1ccc(O)cc1)c1ccc(O)cc1.CCC(=O)O.CCC(=O)O,0,0,0,0
4-ethyl-2-methoxyphenol,380.85,1,CCc1ccc(O)c(OC)c1,0,0,0,0
isobutyl methanoate,302,1,O=COCC(C)C,0,0,0,0