compound,flashpoint,pure substance,smiles,is_silicon,is_metallic,is_tin,is_acid
DI-n-DECYL PHTHALATE,505,1,CCCCCCCCCCOC(=O)c1ccccc1C(=O)OCCCCCCCCCC,0,0,0,0
"2,3-dimethylpentane",258,1,CC(C)C(CC)C,0,0,0,0
"1,2hexadiene-",253.15,1,C=C=CCCC,0,0,0,0
"3-ethyl-2,3,4-trimethylpentane",304,1,C(C)C(C(C)C)(C(C)C)C,0,0,0,0
"1,2-dimethylbenzene",305.15,1,Cc1ccccc1C,0,0,0,0
"diethyl 2,2-diethylpropanedioate",367.55,1,CCOC(=O)C(CC)(CC)C(=O)OCC,0,0,0,0
1H-indazole,401.65,1,c1ccc2[nH]ncc2c1,0,0,0,0
"Methanone, (4-aminophenyl)phenyl-",416.15,1,Nc1ccc(C(=O)c2ccccc2)cc1,0,0,0,0
propyl 3-methylbutanoate,319.85,1,CCCOC(=O)CC(C)C,0,0,0,0
4-methyl-1-pentanol,324,1,CC(C)CCCO,0,0,0,0
4methylaniline,359,1,Cc1ccc(N)cc1,0,0,0,0
"Benzoic acid, p-bromo-, ethyl ester (8CI)",386.15,1,CCOC(=O)c1ccc(Br)cc1,0,0,0,1
Cyclododecane,360.75,1,C1CCCCCCCCCCC1,0,0,0,0
2-chlorophenol,337.15,1,C1=CC=C(C(=C1)O)Cl,0,0,0,0
9-decen-1-ol,392,1,C(CCCCCCCC=C)O,0,0,0,0
5-Chloropyridin-2-ol,402.75,1,Oc1ccc(Cl)cn1,0,0,0,0
2-(2-Pyridyl)ethanol,365.95,1,OCCc1ccccn1,0,0,0,0
2-ethyloxirane,260.928,1,CCC1CO1,0,0,0,0
2-chloropyrazine,330.15,1,Clc1cnccn1,0,0,0,0
t-Butyldimethylsilanol,318.15,1,CC(C)(C)[Si](C)(C)O,1,1,0,0
"Phthalic acid, bis(2,3-epoxypropyl) ester",446.05,1,O=C(OCC1CO1)c1ccccc1C(=O)OCC1CO1,0,0,0,1
"Ethanol, 2-(2-ethoxyethoxy)-, acetate",373.15,1,CCOCCOCCOC(C)=O,0,0,0,0
"N,N-dimethyl-1,3-propanediamine",305,1,CN(CCCN)C,0,0,0,0
butylbenzene,331.2,1,CCCCc1ccccc1,0,0,0,0
"Fluorene-9-carboxylic acid, 2-chloro-9-hydroxy- (8CI)",543.95,1,O=C(O)C1(O)c2ccccc2-c2ccc(Cl)cc21,0,0,0,1
PhenylMethylChloroSilane,335.15,1,Cl[SiH2]Cc1ccccc1,1,1,0,0
n-Octyldimethylchlorosilane,370.15,1,CCCCCCCC[Si](C)(C)Cl,1,1,0,0
diethanolamine,410,1,OCCNCCO,0,0,0,0
ethyl propyl ether,253,1,CCCOCC,0,0,0,0
"Benzeneacetamide, N,N-diethyl- (9CI)",407.45,1,CCN(CC)C(=O)Cc1ccccc1,0,0,0,0
"Benzoic acid, 2,5-dichloro-3-nitro-",448.65,1,O=C(O)c1cc(Cl)cc([N+](=O)[O-])c1Cl,0,0,0,1
"2-Propyn-1-amine, N-methyl-",273.75,1,C#CCNC,0,0,0,0
"Phosphoric acid, 2-chloroethyl 2,2-dichloroethenyl ethyl ester",397.65,1,CCOP(=O)(OC=C(Cl)Cl)OCCCl,0,0,0,1
"2-Propenoic acid, 3-phenyl-, propyl ester",429.25,1,CCCOC(=O)C=Cc1ccccc1,0,0,0,1
1-Undecanal,369.25,1,CCCCCCCCCCC=O,0,0,0,0
n-OCTYL MERCAPTAN,341.1,1,CCCCCCCCS,0,0,0,0
"2-Pyrrolidinone, 1-methyl-",364.15,1,CN1CCCC1=O,0,0,0,0
"1,3-Dioxolane-4-methanol, 2,2-dimethyl-",353.15,1,CC1(C)OCC(CO)O1,0,0,0,0
2-(2-ETHOXYETHOXY)ETHANOL,356.4,1,CCOCCOCCO,0,0,0,0
"2-Propanone, 1,1,1-trifluoro-",243.15,1,CC(=O)C(F)(F)F,0,0,0,0
"Phenol, 2-(1-methylethyl)-",380.15,1,CC(C)c1ccccc1O,0,0,0,0
9-Benzyladenine 1-oxide,537.65,1,Nc1c2ncn(Cc3ccccc3)c2nc[n+]1[O-],0,0,0,0
"Toluene-2,4-diamine, 5-(o-tolylazo)- (8CI)",510.75,1,Cc1cc(N=Nc2ccccc2C)c(N)cc1N,0,0,0,0
"(2-methyl-3-phenylphenyl)methyl 3-(2-chloro-3,3,3-trifluoroprop-1-enyl)-2,2-dimethylcyclopropane-1-carboxylate",438.15,1,CC1=C(C=CC=C1COC(=O)C2C(C2(C)C)C=C(C(F)(F)F)Cl)C3=CC=CC=C3,0,0,0,0
"2H-1-Benzothiopyran-7-sulfonamide, 3,4-dihydro-6-methyl-, 1,1-dioxide",559.05,1,Cc1cc2c(cc1S(N)(=O)=O)S(=O)(=O)CCC2,0,0,0,0
"1,3,5-Triazine, 2,4,6-tris(oxiranylmethoxy)- (9CI)",453.05,1,C(Oc1nc(OCC2CO2)nc(OCC2CO2)n1)C1CO1,0,0,0,0
"Benzofuran, 2,3-dihydro-",339.15,1,c1ccc2c(c1)CCO2,0,0,0,0
nonylbenzene,390,1,C(CCCCCCCC)C1=CC=CC=C1,0,0,0,0
"Benzenamine, 4-chloro-2-methyl-",372.55,1,Cc1cc(Cl)ccc1N,0,0,0,0
2chloro2methylpropane,291,1,CC(C)(C)Cl,0,0,0,0
1-bromopropan-2-ylbenzene,359.05,1,CC(CBr)c1ccccc1,0,0,0,0
trans-2-octene,287,1,C/C=C/CCCCC,0,0,0,0
"Benz(c)acridine, 7,10-dimethyl-",482.95,1,Cc1ccc2c(C)c3ccc4ccccc4c3nc2c1,0,0,0,0
3-Nonanone,339.1,1,CCCCCCC(=O)CC,0,0,0,0
Propylbutyrate,310.15,1,CCCOC(=O)CCC,0,0,0,0
"Benzene, 1,2,3,4,5,6-hexabromo-",472.75,1,Brc1c(Br)c(Br)c(Br)c(Br)c1Br,0,0,0,0
"2,2,5-trimethylhexane",286,1,CC(C)CCC(C)(C)C,0,0,0,0
"1,3-Propanediol, 2-amino-",388.25,1,NC(CO)CO,0,0,0,0
2methyl1butanol,316,1,CCC(C)CO,0,0,0,0
1bromohexane,330.35,1,CCCCCCBr,0,0,0,0
butyl formate,291.15,1,CCCCOC=O,0,0,0,0
"2,3-dimethylbut-1-ene",255,1,CC(=C)C(C)C,0,0,0,0
"2-Furanacrylamide, N-ethyl-5-nitro-",482.05,1,CCNC(=O)C=Cc1ccc([N+](=O)[O-])o1,0,0,0,0
"Quinoline, 1,2-dihydro-2,2,4-trimethyl-",388.15,1,CC1=CC(C)(C)Nc2ccccc21,0,0,0,0
"2,4,4-trimethyl-2-pentene",272,1,CC(C)=CC(C)(C)C,0,0,0,0
"Ethanol, 2,2',2''-nitrilotris-",458.15,1,OCCN(CCO)CCO,0,0,0,0
tertButylAcetoAcetate,333,1,CC(=O)CC(=O)OC(C)(C)C,0,0,0,0
1-isothiocyanato-4-methylbenzene,373.65,1,Cc1ccc(N=C=S)cc1,0,0,0,0
"Phosphorodithioic acid, O,O-diethyl S-((ethylsulfonyl)methyl) ester",467.25,1,CCOP(=S)(OCC)SCS(=O)(=O)CC,0,0,0,1
"1,2dibromoethyltrichlorosilane",338.15,1,Cl[Si](Cl)(Cl)C(Br)CBr,1,1,0,0
di-n-nonyl phthalate,489,1,CCCCCCCCCOC(=O)c1ccccc1C(=O)OCCCCCCCCC,0,0,0,0
1heptanamine,308.15,1,CCCCCCCN,0,0,0,0
2dodecene,351.15,1,CC=CCCCCCCCCC,0,0,0,0
"1,4,5,6,7,7-hexachloro-2,2-bis(chloromethyl)-3-methylidenebicyclo[2.2.1]heptane",302.15,1,C=C1C(C2(C(C(C1(C2(Cl)Cl)Cl)Cl)Cl)Cl)(CCl)CCl,0,0,0,0
AMINOPHENYLTRIMETHOXYSILANE,453.15,1,CO[Si](OC)(OCN)c1ccccc1,1,1,0,0
"2-Propenoic acid, 3-(3,4-dihydroxyphenyl)- (9CI)",493.15,1,O=C(O)C=Cc1ccc(O)c(O)c1,0,0,0,1
1-decanethiol,372,1,C(CCCCCCCCC)S,0,0,0,0
Cumene hydroperoxide,352.15,1,CC(C)c1ccccc1.[O-]O,0,0,0,0
3-methylidene-6-propan-2-ylcyclohexene,393.15,1,CC(C)C1CCC(=C)C=C1,0,0,0,0
"Piperazine, 1-methyl-",315.35,1,CN1CCNCC1,0,0,0,0
"Phosphonic acid, (2,2,2-trichloro-1-hydroxyethyl)-, dimethyl ester",389.85,1,COP(=O)(OC)C(O)C(Cl)(Cl)Cl,0,0,0,1
TITANIUM METHOXIDE,321.15,1,C[O-].C[O-].C[O-].C[O-].[Ti+4],0,1,0,0
"benzene-1,3-dicarbonyl chloride",453.15,1,C1=CC(=CC(=C1)C(=O)Cl)C(=O)Cl,0,0,0,0
Morpholine,311.15,1,C1COCCN1,0,0,0,0
"Acetanilide, 2-bromo-2'-hydroxy-5'-nitro- (8CI)",512.65,1,O=C(CBr)Nc1cc([N+](=O)[O-])ccc1O,0,0,0,0
"2,5-Cyclohexadiene-1,4-dione, 2,3-dimethoxy-5-methyl-",421.75,1,COC1=C(OC)C(=O)C(C)=CC1=O,0,0,0,0
PhenylIsothiocyanate,360.95,1,S=C=Nc1ccccc1,0,0,0,0
"1,3-Butadien-1-ol, acetate",306.45,1,C=CC=COC(C)=O,0,0,0,0
"Benzenamine, 4-methyl-2-nitro-",410.15,1,Cc1ccc(N)c([N+](=O)[O-])c1,0,0,0,0
4-methylbenzenethiol,342.65,1,Cc1ccc(S)cc1,0,0,0,0
4-Chlorobenzeneethanamine,379.15,1,NCCc1ccc(Cl)cc1,0,0,0,0
"2,2,3,3-TETRAMETHYLBUTANE",278,1,CC(C)(C)C(C)(C)C,0,0,0,0
DIPROPYLENE GLYCOL MONOETHYL ETHER,364,1,CCOC(C)COC(C)CO,0,0,0,0
"4,5-dimethylbenzene-1,3-diol",405.65,1,Cc1cc(O)cc(O)c1C,0,0,0,0
Bromobenzene,324.15,1,Brc1ccccc1,0,0,0,0
propylvinylether,251,1,C(CC)OC=C,0,0,0,0
TetramethylDivinylDisiloxane,292.15,1,C=C[Si](C)(C=C)O[Si](C)(C)C,1,1,0,0
"2-chloro-1,3-dinitrobenzene",415.55,1,O=[N+]([O-])c1cccc([N+](=O)[O-])c1Cl,0,0,0,0
3-hexanol,318,1,CCC(CCC)O,0,0,0,0
"Pyrocatechol, 3-methoxy- (8CI)",392.65,1,COc1cccc(O)c1O,0,0,0,0
EthenylBenzene,305.15,1,C=Cc1ccccc1,0,0,0,0
1-nitroethene,296.35,1,C=C[N+](=O)[O-],0,0,0,0
"2,5-dimethylcyclopentan-1-one",313.75,1,CC1CCC(C)C1=O,0,0,0,0
"2-Propen-1-ol, 3-phenyl-, formate",400.85,1,O=COCC=Cc1ccccc1,0,0,0,0
2-nonanol,355,1,CC(CCCCCCC)O,0,0,0,0
1-chlorohexane,299,1,ClCCCCCC,0,0,0,0
3-methylhexane,258,1,CC(CC)CCC,0,0,0,0
"Benzimidazole, 4,5-dichloro-2-(trifluoromethyl)-",431.25,1,FC(F)(F)c1nc2ccc(Cl)c(Cl)c2[nH]1,0,0,0,0
allylpropylether,268,1,C(C=C)OCCC,0,0,0,0
(Allylthio)benzene,351.968,1,C=CCSc1ccccc1,0,0,0,0
"trans-1,2-DICHLOROETHYLENE",275,1,Cl/C=C/Cl,0,0,0,0
"Hydrazine, phenyl-",388.55,1,NNc1ccccc1,0,0,0,0
"3,5-Cyclohexadiene-1,2-dione, 3-(1,1-dimethylethyl)-5-methoxy-",401.65,1,COC1=CC(=O)C(=O)C(C(C)(C)C)=C1,0,0,0,0
ethylene carbonate,423,1,O=C1OCCO1,0,0,0,0
"3-ethylpentane-2,4-dione",333.35,1,CCC(C(C)=O)C(C)=O,0,0,0,0
(2-methylphenyl)-phenylmethanone,392.15,1,Cc1ccccc1C(=O)c1ccccc1,0,0,0,0
cyclohexanone,316,1,C1(CCCCC1)=O,0,0,0,0
"2,2',2''-NITRILOTRIS-ACETONITRILE",487,1,N#CCN(CC#N)CC#N,0,0,0,0
"1,3-dioxolane",275.15,1,C1COCO1,0,0,0,0
"1,2,3-triethylbenzene",356.15,1,CCC1=C(C(=CC=C1)CC)CC,0,0,0,0
butyl heptanoate,361.05,1,CCCCCCC(=O)OCCCC,0,0,0,0
2-methylpropan-2-ol,284.261,1,CC(C)(C)O,0,0,0,0
"Imidazole, 4,5-dibromo- (7CI,8CI)",461.95,1,Brc1nc[nH]c1Br,0,0,0,0
TETRAETHYLENE GLYCOL DIMETHYL ETHER,414.1,1,COCCOCCOCCOCCOC,0,0,0,0
2-nitropropane,297.15,1,CC(C)[N+](=O)[O-],0,0,0,0
3-hexanone,296,1,CCC(CCC)=O,0,0,0,0
"1,1,2,2,3,3-Hexachloropropane",366.85,1,ClC(Cl)C(Cl)(Cl)C(Cl)Cl,0,0,0,0
"2,4,6-trimethylheptane",304,1,CC(C)CC(C)CC(C)C,0,0,0,0
"Acenaphtho(1,2-b)quinoline",488.35,1,c1ccc2nc3c(cc2c1)-c1cccc2cccc-3c12,0,0,0,0
1-hydroxybutan-2-one,333.15,1,CCC(=O)CO,0,0,0,0
n-PROPYLBENZENE,303.1,1,CCCc1ccccc1,0,0,0,0
"Benzaldehyde, 2,4,6-trihydroxy-",434.15,1,O=Cc1c(O)cc(O)cc1O,0,0,0,0
m-CHLOROANILINE,378,1,Nc1cccc(Cl)c1,0,0,0,0
phenyl isocyanate,324,1,O=C=Nc1ccccc1,0,0,0,0
"N,N,N',N'-Tetramethyl-2,2'-oxybis(ethylamine)",319.35,1,CN(C)CCOCCN(C)C,0,0,0,0
"Benzenamine, 4-(2-phenylethenyl)-, (E)- (9CI)",460.05,1,Nc1ccc(/C=C/c2ccccc2)cc1,0,0,0,0
propylacrylate,297,1,C(CC)OC(C=C)=O,0,0,0,0
ethylsalicylate,380,1,C(C)OC=1C(C(=O)[O-])=CC=CC1,0,0,0,0
"Benzene, 2,4-dichloro-1-nitro-",390.05,1,O=[N+]([O-])c1ccc(Cl)cc1Cl,0,0,0,0
"Benzoic acid, 2-hydroxy-, 3-methylbutyl ester",383.05,1,CC(C)CCOC(=O)c1ccccc1O,0,0,0,1
"Octanoic acid, ethyl ester",348.15,1,CCCCCCCC(=O)OCC,0,0,0,1
pyridine,290,1,N1=CC=CC=C1,0,0,0,0
"2,3,4,5-Tetramethylhexane",304,1,CC(C)C(C)C(C)C(C)C,0,0,0,0
2-aminoethanol,366.15,1,C(CO)N,0,0,0,0
"Butanamide, N-(2-chlorophenyl)-3-oxo-",449.15,1,CC(=O)CC(=O)Nc1ccccc1Cl,0,0,0,0
acridin-4-amine,510.35,1,Nc1cccc2cc3ccccc3nc12,0,0,0,0
"1,3-Propanediol, 2-(hydroxymethyl)-2-nitro-",482.45,1,O=[N+]([O-])C(CO)(CO)CO,0,0,0,0
"1-Naphthalenebutanoic acid, 4-methoxy-gamma-oxo-",469.75,1,COc1ccc(C(=O)CCC(=O)O)c2ccccc12,0,0,0,1
"2,2,3,3-tetrafluoropropyl prop-2-enoate",307.85,1,C=CC(=O)OCC(F)(F)C(F)F,0,0,0,0
1pentene3yne-,243.15,1,C=CC#CC,0,0,0,0
2-cyclohexylpropan-2-ylcyclohexane,385.55,1,CC(C)(C1CCCCC1)C1CCCCC1,0,0,0,0
methylenecyclopentane,254,1,C=C1CCCC1,0,0,0,0
"S-[(E)-2,3-dichloroprop-2-enyl] N,N-di(propan-2-yl)carbamothioate",369.15,1,CC(C)N(C(C)C)C(=O)SCC(=CCl)Cl,0,0,0,0
2-chlorophenol,345,1,ClC1=C(C=CC=C1)O,0,0,0,0
3-methylhexan-3-ol,322.55,1,CCCC(C)(O)CC,0,0,0,0
dipropylsulfide,301,1,C(CC)SCCC,0,0,0,0
PhenacylChloride,391.15,1,O=C(CCl)c1ccccc1,0,0,0,0
TRI-n-BUTYLMETHOXYTIN,371.15,1,CCCC[Sn](CCCC)(CCCC)OC,0,1,1,0
"Phenol, 4-iodo-",385.55,1,Oc1ccc(I)cc1,0,0,0,0
"Benzothiazole, 2-amino-4-methyl-",421.75,1,Cc1cccc2sc(N)nc12,0,0,0,0
"2,3,3-trimethylhexane",288,1,CC(C)C(CCC)(C)C,0,0,0,0
"Ethanol, 2,2'-(1,2-ethanediylbis(oxy))bis-, diacetate",447.15,1,CC(=O)O.CC(=O)O.OCCOCCOCCO,0,0,0,0
 Bis(dimethylamino)methylsilane,270.15,1,CN(C)C([SiH3])N(C)C,1,1,0,0
"Oxirane, ((2-naphthalenyloxy)methyl)- (9CI)",425.15,1,c1ccc2cc(OCC3CO3)ccc2c1,0,0,0,0
Bibenzyl,402,1,c1ccc(CCc2ccccc2)cc1,0,0,0,0
"bicyclo[2.2.1]hepta-2,5-diene",252.15,1,C1C2C=CC1C=C2,0,0,0,0
"1,1,1,3-tetrachloropropan-2-one",336.95,1,O=C(CCl)C(Cl)(Cl)Cl,0,0,0,0
"Acetamide, N-(4-hydroxyphenyl)-",461.55,1,CC(=O)Nc1ccc(O)cc1,0,0,0,0
ethyl hexanoate,326,1,CCCCCC(=O)OCC,0,0,0,0
N-acetyl-N-methylacetamide,339.65,1,CC(=O)N(C)C(C)=O,0,0,0,0
1-Trimethylsilylpropyne,270.15,1,CC#C[Si](C)(C)C,1,1,0,0
"Urea, N,N'-diphenyl-",364.25,1,O=C(Nc1ccccc1)Nc1ccccc1,0,0,0,0
"1-(3,4-dimethoxyphenyl)ethanone",386.55,1,COc1ccc(C(C)=O)cc1OC,0,0,0,0
"Propionic acid, 2-bromo-, ethyl ester (6CI,7CI,8CI)",331.55,1,CCOC(=O)C(C)Br,0,0,0,1
"3-N,3-N-dimethylbenzene-1,3-diamine",361.95,1,CN(C)c1cccc(N)c1,0,0,0,0
"Benzenepropanal, 4-(1,1-dimethylethyl)-alpha-methyl-",381.15,1,CC(C=O)Cc1ccc(C(C)(C)C)cc1,0,0,0,0
"Benzoic acid, 4-chloro-3-nitro-",451.65,1,O=C(O)c1ccc(Cl)c([N+](=O)[O-])c1,0,0,0,1
1bromobutane,297.05,1,CCCCBr,0,0,0,0
"3,5-XYLENOL",373,1,Cc1cc(C)cc(O)c1,0,0,0,0
"Bicyclo(2.2.1)heptan-2-ol, 1,7,7-trimethyl-, (1S,2R,4S)-",338.15,1,CC1(C)[C@H]2CC[C@]1(C)[C@H](O)C2,0,0,0,0
"5H-Dibenz(b,f)azepin-2-ol, 10,11-dihydro-5-(3-(dimethylamino)propyl)-",512.65,1,CN(C)CCCN1c2ccccc2CCc2cc(O)ccc21,0,0,0,0
"Estra-1,3,5(10)-triene-3,16,17-triol, (16alpha,17beta)-",493.95,1,C[C@]12CC[C@@H]3c4ccc(O)cc4CC[C@H]3[C@@H]1C[C@@H](O)[C@@H]2O,0,0,0,0
"9,10-Anthracenedione, 1,4-bis((4-methylphenyl)amino)-",470.15,1,Cc1ccc(Nc2ccc(Nc3ccc(C)cc3)c3c2C(=O)c2ccccc2C3=O)cc1,0,0,0,0
"2-bromo-1,4-dimethylbenzene",352.15,1,Cc1ccc(C)c(Br)c1,0,0,0,0
"2,2,3,3,4,4,5,5,6,6,7,7,7-tridecafluoroheptanoic acid",324.45,1,O=C(O)C(F)(F)C(F)(F)C(F)(F)C(F)(F)C(F)(F)C(F)(F)F,0,0,0,1
"Decane, 1-bromo-",367.594,1,CCCCCCCCCCBr,0,0,0,0
chloromethoxyethane,292.15,1,CCOCCl,0,0,0,0
"Ethaneperoxoic acid, 1,1-dimethylethyl ester",312.95,1,CC(=O)OOC(C)(C)C,0,0,0,1
"Benzene, 1-chloro-2,4-dinitro-",459.15,1,O=[N+]([O-])c1ccc(Cl)c([N+](=O)[O-])c1,0,0,0,0
"1,1,1,2,3,3,3-heptafluoro-2-iodopropane",277.85,1,FC(F)(F)C(F)(I)C(F)(F)F,0,0,0,0
"3-Hexen-1-ol, acetate, (3Z)-",330.35,1,CC/C=C\CCOC(C)=O,0,0,0,0
"2,6-dimethylheptan-3-ol",342.95,1,CC(C)CCC(O)C(C)C,0,0,0,0
"Benzoic acid, 2,6-dichloro-",407.65,1,O=C(O)c1c(Cl)cccc1Cl,0,0,0,1
"1,3dibromoBenzene",366.15,1,Brc1cccc(Br)c1,0,0,0,0
"Phosphonotrithioic acid, methyl-, dipropyl ester",409.45,1,CCCSP(C)(=S)SCCC,0,0,0,1
"Leucine, N-(N-acetyl-3-(p-(bis(2-chloroethyl)amino)phenyl)-DL-alanyl)-",642.25,1,CC(=O)NC(Cc1ccc(N(CCCl)CCCl)cc1)C(=O)N[C@@H](CC(C)C)C(=O)O,0,0,0,0
"1-Propene, 1,3-dichloro-",300.95,1,ClC=CCCl,0,0,0,0
ethyl 2-methyl-3-oxobutanoate,335.15,1,CCOC(=O)C(C)C(C)=O,0,0,0,0
PROPYLENE GLYCOL MONOMETHYL ETHER ACETATE,316,1,COCC(C)OC(C)=O,0,0,0,0
4-chloroaniline,386.15,1,C1=CC(=CC=C1N)Cl,0,0,0,0
"Sulfurous acid, diethyl ester",326.15,1,CCOS(=O)OCC,0,0,0,1
2-methylprop-2-en-1-ol,306.15,1,CC(=C)CO,0,0,0,0
4-methylhex-1-ene,258,1,CC(CC=C)CC,0,0,0,0
1-cyclohexylpropan-1-one,347.65,1,CCC(=O)C1CCCCC1,0,0,0,0
Resorcinol,400.15,1,Oc1cccc(O)c1,0,0,0,0
Benzylbenzoate,421.15,1,O=C(OCc1ccccc1)c1ccccc1,0,0,0,0
"1-methyl-4-(propan-2-yl)cyclohexa-1,4-diene",324,1,CC1=CCC(=CC1)C(C)C,0,0,0,0
"2-Cyclopenten-1-one, 2-hydroxy-3-methyl-",373.85,1,CC1=C(O)C(=O)CC1,0,0,0,0
"Pyridine, 2,6-dimethyl-",306,1,Cc1cccc(C)n1,0,0,0,0
"2-phenyl-3,4-dihydro-2H-chromene",430.35,1,c1ccc(C2CCc3ccccc3O2)cc1,0,0,0,0
"1,2-Dithiolane-3-pentanamide (9CI)",468.35,1,NC(=O)CCCCC1CCSS1,0,0,0,0
"2,2,4-trimethylcyclopentan-1-one",318.55,1,CC1CC(=O)C(C)(C)C1,0,0,0,0
bis(3-methylbutyl) carbonate,361.35,1,CC(C)CCOC(=O)OCCC(C)C,0,0,0,0
"1-Propanol, 2-ethoxy-",319.05,1,CCOC(C)CO,0,0,0,0
bis(methylsulfanyl)methane,316.15,1,CSCSC,0,0,0,0
cyclobutanecarbonitrile,317.45,1,N#CC1CCC1,0,0,0,0
1-methyl-4-propylbenzene,329.45,1,CCCc1ccc(C)cc1,0,0,0,0
HexamethylDisilaThiane,299.15,1,C[Si](C)(C)S[Si](C)(C)C,1,1,0,0
trans-2-pentene,228,1,C/C=C/CC,0,0,0,0
"Carbamic acid, methyl-, o-(4,7-dihydro-1,3-dioxepin-2-yl)phenyl ester",442.75,1,CNC(=O)Oc1ccccc1C1OCC=CCO1,0,0,0,1
"2-Propenal, 3-phenyl-, (E)- (9CI)",344.15,1,O=C/C=C/c1ccccc1,0,0,0,0
"2,2-dichloroacetyl chloride",339.15,1,C(C(=O)Cl)(Cl)Cl,0,0,0,0
"Phosphonofluoridic acid, methyl-, 1-methylethyl ester",315.85,1,CC(C)OP(C)(=O)F,0,0,0,1
"2H-1-Benzopyran-2-one, 7-methyl-",399.05,1,Cc1ccc2ccc(=O)oc2c1,0,0,0,0
"Phthalic acid, bis(2-methoxyethyl) ester (8CI)",404.75,1,COCCOC(=O)c1ccccc1C(=O)OCCOC,0,0,0,1
2-Chloro-5-methylhexane,308.4,1,CC(C)CCC(C)Cl,0,0,0,0
3hexanone,287,1,CCCC(=O)CC,0,0,0,0
3-methyl-1H-pyrrole,320.35,1,Cc1cc[nH]c1,0,0,0,0
2-methylthiophene,281,1,CC=1SC=CC1,0,0,0,0
"2,3-Dihydroxybenzaldehyde",386.35,1,O=Cc1cccc(O)c1O,0,0,0,0
"2,3-dichloro-2-methylbutane",302.65,1,CC(Cl)C(C)(C)Cl,0,0,0,0
1-Naphthalenol,417.15,1,Oc1cccc2ccccc12,0,0,0,0
"2,4,6(1H,3H,5H)-Pyrimidinetrione",423.15,1,O=C1CC(=O)NC(=O)N1,0,0,0,0
2-ethylsulfanylethanol,289.25,1,CCSCCO,0,0,0,0
CyclopentenyloxyTrimethylSilane,311.15,1,C[Si](C)(C)OC1=CCCC1,1,1,0,0
Allylmethyldichlorosilane,300.15,1,C=CCC[SiH](Cl)Cl,1,1,0,0
2-(2-carbonochloridoyloxyethoxy)ethyl carbonochloridate,568.15,1,C(COC(=O)Cl)OCCOC(=O)Cl,0,0,0,0
"2,2-dimethylhexane",269,1,CCCCC(C)(C)C,0,0,0,0
"1,4-Benzenediol, 2-chloro-",392.85,1,Oc1ccc(O)c(Cl)c1,0,0,0,0
2methylheptane,277,1,CCCCCC(C)C,0,0,0,0
"D-Glucose, 4-O-beta-D-galactopyranosyl-",630.95,1,O=C[C@H](O)[C@@H](O)[C@H](O[C@@H]1O[C@H](CO)[C@H](O)[C@H](O)[C@H]1O)[C@H](O)CO,0,0,0,0
Methyltrimethoxysilane,284.15,1,CO[Si](C)(OC)OC,1,1,0,0
"1,1,3-trimethylurea",367.55,1,CNC(=O)N(C)C,0,0,0,0
4-fluoro-1-methyl-2-nitrobenzene,372.05,1,Cc1ccc(F)cc1[N+](=O)[O-],0,0,0,0
"Propanedioic acid, dimethyl ester",363.15,1,COC(=O)CC(=O)OC,0,0,0,1
benzonitrile,345.15,1,C1=CC=C(C=C1)C#N,0,0,0,0
2-butylpyridine,341.95,1,CCCCc1ccccn1,0,0,0,0
Thiophene,272.15,1,c1ccsc1,0,0,0,0
"Furan, 2,5-diphenyl-",437.45,1,c1ccc(-c2ccc(-c3ccccc3)o2)cc1,0,0,0,0
cisDecalin,331.15,1,C1CC[C@H]2CCCC[C@H]2C1,0,0,0,0
4-NONANONE,335,1,CCCCCC(=O)CCC,0,0,0,0
non-4-yne,311.45,1,CCCC#CCCCC,0,0,0,0
"Crotonic acid, 2-methyl-, ethyl ester, (E)- (8CI)",317.15,1,C/C=C(\C)C(=O)OCC,0,0,0,1
DIMETHYL SUCCINATE,358.1,1,COC(=O)CCC(=O)OC,0,0,0,0
"Thiophene, tetrahydro-3-methyl-, 1,1-dioxide",427.55,1,CC1CCS(=O)(=O)C1,0,0,0,0
"[cyano-(3-phenoxyphenyl)methyl] (1R,3S)-2,2-dimethyl-3-[(1S)-1,2,2,2-tetrabromoethyl]cyclopropane-1-carboxylate",299.15,1,CC1(C(C1C(=O)OC(C#N)C2=CC(=CC=C2)OC3=CC=CC=C3)C(C(Br)(Br)Br)Br)C,0,0,0,0
2-iodothiophene,344.25,1,Ic1cccs1,0,0,0,0
"2(3H)-Furanone, 5-hexyldihydro-",419.15,1,CCCCCCC1CCC(=O)O1,0,0,0,0
"Acetonitrile, (diethylamino)-",327.05,1,CCN(CC)CC#N,0,0,0,0
"7H-Benzimidazo(2,1-a)benz(de)isoquinolin-7-one, 10-methyl-",599.35,1,Cc1ccc2nc3c4cccc5cccc(c(=O)n3c2c1)c54,0,0,0,0
"2-chloro-N-(2,6-diethylphenyl)-N-(methoxymethyl)acetamide",410.15,1,CCC1=C(C(=CC=C1)CC)N(COC)C(=O)CCl,0,0,0,0
Ethyl2trimethylsilylAcetate,308.15,1,CCOC(=O)C[Si](C)(C)C,1,1,0,0
"Phenanthrene, 1-methyl-",430.65,1,Cc1cccc2c1ccc1ccccc12,0,0,0,0
"Benzamide, 2-methyl-3,5-dinitro-",407.15,1,Cc1c(C(N)=O)cc([N+](=O)[O-])cc1[N+](=O)[O-],0,0,0,0
"Urea, (1-methylcyclohexyl)-",373.65,1,CC1(NC(N)=O)CCCCC1,0,0,0,0
"Aniline, p-fluoro-N-methyl-N-nitroso-",391.25,1,CN(N=O)c1ccc(F)cc1,0,0,0,0
1iodoheptane,352.05,1,CCCCCCCI,0,0,0,0
dibutoxy(oxo)phosphanium,322.15,1,CCCCO[P+](=O)OCCCC,0,0,0,0
"2-Propen-1-one, 1-(4-methoxyphenyl)-3-phenyl-",453.65,1,COc1ccc(C(=O)C=Cc2ccccc2)cc1,0,0,0,0
3-ethylaniline,358,1,C(C)C=1C=C(N)C=CC1,0,0,0,0
"Hydroperoxide, ethyl",284.45,1,CCOO,0,0,0,0
tetradecylcyclopentane,427.25,1,CCCCCCCCCCCCCCC1CCCC1,0,0,0,0
"2,2,3,3-tetramethylpentane",289,1,CC(C)(C(CC)(C)C)C,0,0,0,0
1-ethenyl-2-methylbenzene;1-ethenyl-3-methylbenzene;1-ethenyl-4-methylbenzene,325.15,1,CC1=CC=C(C=C1)C=C.CC1=CC=CC(=C1)C=C.CC1=CC=CC=C1C=C,0,0,0,0
"Phenol, 4-octyl-",383.15,1,CCCCCCCCc1ccc(O)cc1,0,0,0,0
2-methylbut-2-ene,228,1,CC=C(C)C,0,0,0,0
2-ethyl-6-methylaniline,375,1,C(C)C1=C(N)C(=CC=C1)C,0,0,0,0
2-Nonenal,357.55,1,CCCCCCC=CC=O,0,0,0,0
[2-(4-tert-butylphenoxy)cyclohexyl] prop-2-ynyl sulfite,301.15,1,CC(C)(C)C1=CC=C(C=C1)OC2CCCCC2OS(=O)OCC#C,0,0,0,0
cyclohexanemethylamine,316,1,NCC1CCCCC1,0,0,0,0
3-Acridinamine (9CI),514.35,1,Nc1ccc2cc3ccccc3nc2c1,0,0,0,0
8-Aminofluoranthene,523.75,1,Nc1ccc2c(c1)-c1cccc3cccc-2c13,0,0,0,0
"11-Hexadecenal, (11Z)-",334.25,1,CCCC/C=C\CCCCCCCCCC=O,0,0,0,0
Methylphenyldimethoxysilane,349.15,1,CO[Si](C)(OC)c1ccccc1,1,1,0,0
Tetradecane,372,1,CCCCCCCCCCCCCC,0,0,0,0
N-[2-[ethoxy(methyl)phosphoryl]sulfanylethyl]-N-propan-2-ylpropan-2-amine,432.15,1,CCOP(=O)(C)SCCN(C(C)C)C(C)C,0,0,0,0
DIPROPYLENE GLYCOL,391,1,CC(O)COC(C)CO,0,0,0,0
"4,4-dimethyl-2,3-dihydro-1H-naphthalene",354.35,1,CC1(C)CCCc2ccccc21,0,0,0,0
2-methyl-2-butene,228,1,CC(C)=CC,0,0,0,0
"2-Propenamide, N-(1-methylethyl)-",392.85,1,C=CC(=O)NC(C)C,0,0,0,0
"Benzenamine, 2,6-dimethyl-",364.15,1,Cc1cccc(C)c1N,0,0,0,0
"Succinimide, 2-methylene-N-(m-nitrophenyl)-",479.35,1,C=C1CC(=O)N(c2cccc([N+](=O)[O-])c2)C1=O,0,0,0,0
p-Chlorophenyltrimethylsilane,322.15,1,C[Si](C)(C)c1ccc(Cl)cc1,1,1,0,0
chlorocyclohexane,301,1,ClC1CCCCC1,0,0,0,0
3-ethyl-2-methylpentane,276,1,CCC(CC)C(C)C,0,0,0,0
Isopropyl toluene-4-sulphonate,416.85,1,Cc1ccc(S(=O)(=O)OC(C)C)cc1,0,0,0,0
"2-(1,3-benzothiazol-2-yldisulfanyl)-1,3-benzothiazole",543.15,1,C1=CC=C2C(=C1)N=C(S2)SSC3=NC4=CC=CC=C4S3,0,0,0,0
"1,3,5-Triazine-2,4-diamine, N,N'-diethyl-6-(methylthio)- (9CI)",464.75,1,CCNc1nc(NCC)nc(SC)n1,0,0,0,0
"1,4-hexadiene",248,1,C=CCC=CC,0,0,0,0
1-piperidin-1-ylethanone,370.15,1,CC(=O)N1CCCCC1,0,0,0,0
dithiophen-2-ylmethanone,422.25,1,O=C(c1cccs1)c1cccs1,0,0,0,0