compound,flashpoint,pure substance,smiles,is_silicon,is_metallic,is_tin,is_acid
tetramethylplumbane,311.15,1,C[Pb](C)(C)C,0,1,0,0
tetraethylplumbane,366.15,1,CC[Pb](CC)(CC)CC,0,1,0,0
chloro(diethyl)alumane,250.15,1,CC[Al](CC)Cl,0,1,0,0
triethylborane,237.15,1,B(CC)(CC)CC,0,1,0,0
"zinc;N,N-dimethylcarbamodithioate",366.15,1,CN(C)C(=S)[S-].CN(C)C(=S)[S-].[Zn+2],0,1,0,0
trisodium;2-[2-[bis(carboxylatomethyl)amino]ethyl-(2-hydroxyethyl)amino]acetate,373.15,1,C(CN(CC(=O)[O-])CC(=O)[O-])N(CCO)CC(=O)[O-].[Na+].[Na+].[Na+],0,1,0,0
zinc;octadecanoate,550.15,1,CCCCCCCCCCCCCCCCCC(=O)[O-].CCCCCCCCCCCCCCCCCC(=O)[O-].[Zn+2],0,1,0,0
tributyl borate,366.15,1,B(OCCCC)(OCCCC)OCCCC,0,1,0,0
tripropan-2-yl borate,301.15,1,B(OC(C)C)(OC(C)C)OC(C)C,0,1,0,0
chloro(diethyl)alumane;dichloro(ethyl)alumane,253.15,1,CC[Al](CC)Cl.CC[Al](Cl)Cl,0,1,0,0
"carbon monoxide;manganese;2-methylcyclopenta-1,3-diene",369.15,1,CC1=C[CH-]C=C1.[C-]#[O+].[C-]#[O+].[C-]#[O+].[Mn],0,1,0,0
dichlorochromium;octadecanoic acid;hydrate,275.15,1,CCCCCCCCCCCCCCCCCC(=O)O.O.Cl[Cr]Cl.Cl[Cr]Cl,0,1,0,1
ethoxyethane;trifluoroborane,337.15,1,B(F)(F)F.CCOCC,0,1,0,0
manganese(2+);N-[2-(sulfidocarbothioylamino)ethyl]carbamodithioate,411.15,1,C(CNC(=S)[S-])NC(=S)[S-].[Mn+2],0,1,0,0
chromium(3+);octadecanoate;tetrachloride;hydroxide,275.15,1,CCCCCCCCCCCCCCCCCC(=O)[O-].[OH-].[Cl-].[Cl-].[Cl-].[Cl-].[Cr+3].[Cr+3],0,1,0,0
sodium;chloro-(4-methylphenyl)sulfonylazanide,465.15,1,CC1=CC=C(C=C1)S(=O)(=O)[N-]Cl.[Na+],0,1,0,0
dichlorochromium;1-hydroxyoctadecylideneoxidanium;hydrate,275.15,1,CCCCCCCCCCCCCCCCCC(=[OH+])O.O.Cl[Cr]Cl.Cl[Cr]Cl,0,1,0,0
zinc;N-[2-(sulfidocarbothioylamino)ethyl]carbamodithioate,363.15,1,C(CNC(=S)[S-])NC(=S)[S-].[Zn+2],0,1,0,0
"cyclopenta-1,3-diene;nickel",277.15,1,C1C=CC=C1.C1C=CC=C1.[Ni],0,1,0,0
acetyloxy(phenyl)mercury,333.15,1,CC(=O)O[Hg]C1=CC=CC=C1,0,1,0,0
triethylalumane,220.15,1,CC[Al](CC)CC,0,1,0,0
tris(2-methylpropyl)alumane,250.15,1,CC(C)C[Al](CC(C)C)CC(C)C,0,1,0,0
zinc;bis(6-methylheptoxy)-sulfanylidene-sulfido-λ5-phosphane,433.15,1,CC(C)CCCCCOP(=S)(OCCCCCC(C)C)[S-].CC(C)CCCCCOP(=S)(OCCCCCC(C)C)[S-].[Zn+2],0,1,0,0
zinc;octadecanoic acid,550.15,1,CCCCCCCCCCCCCCCCCC(=O)O.[Zn+2],0,1,0,1
potassium;methanolate,284.15,1,C[O-].[K+],0,1,0,0
butan-1-ol;titanium,350.15,1,CCCCO.[Ti],0,1,0,0
methoxy(dioxido)borane,266.15,1,B([O-])([O-])OC,0,1,0,0
copper;3-(4-ethylcyclohexyl)propanoate;3-(3-ethylcyclopentyl)propanoate,311.15,1,CCC1CCC(CC1)CCC(=O)[O-].CCC1CCC(C1)CCC(=O)[O-].[Cu+2],0,1,0,0
DIPHENYLGERMANE,377.15,1,c1ccc([GeH2]c2ccccc2)cc1,0,1,0,0
ETHYLTRICHLOROGERMANE,324.15,1,CC[Ge](Cl)(Cl)Cl,0,1,0,0
HEXAMETHYLDIGERMANE,287.15,1,C[Ge](C)(C)[Ge](C)(C)C,0,1,0,0
METHACRYLOXYMETHYLTRIMETHYLGERMANE,336.15,1,C=C(C)C(=O)OC[Ge](C)(C)C,0,1,0,0
METHYLTRICHLOROGERMANE,283.15,1,C[Ge](Cl)(Cl)Cl,0,1,0,0
METHYLTRIETHOXYGERMANE,313.15,1,CCO[Ge](C)(OCC)OCC,0,1,0,0
TETRAALLYLGERMANE,343.15,1,C=CC[Ge](CC=C)(CC=C)CC=C,0,1,0,0
TRIS(TRIMETHYLSILOXY)BORON,315.15,1,C[Si](C)(C)OB(O[Si](C)(C)C)O[Si](C)(C)C,1,1,0,0
"1,1,1-Trifluoropropyltrichlorosilane",288,1,FC(C(C)[Si](Cl)(Cl)Cl)(F)F,1,1,0,0
3-Chloropropylmethyldichlorosilane,359,1,ClCCC[Si](Cl)(Cl)C,1,1,0,0
ALLYLTRI-n-BUTYLTIN,376.15,1,C=CC[Sn](CCCC)(CCCC)CCCC,0,1,1,0
BIS[BIS(TRIMETHYLSILYL)AMINO]TIN(II),329.15,1,C[Si](C)(C)N([Sn]N([Si](C)(C)C)[Si](C)(C)C)[Si](C)(C)C,1,1,1,0
t-BUTYLTRI n-BUTYLTIN,375.15,1,CCCC[Sn](CCCC)(CCCC)C(C)(C)C,0,1,1,0
CHLOROMETHYLTRIMETHYLTIN,312.15,1,C[Sn](C)(C)CCl,0,1,1,0
DIALLYLDI-n-BUTYLTIN,374.15,1,C=CC[Sn](CC=C)(CCCC)CCCC,0,1,1,0
DI-n-BUTYLDIACETOXYTIN,416.15,1,CCCC[Sn](CCCC)(OC(C)=O)OC(C)=O,0,1,1,0
DI-n-BUTYLDI-n-BUTOXYTIN,389.15,1,CCCCO[Sn](CCCC)(CCCC)OCCCC,0,1,1,0
DI-t-BUTYLDICHLOROTIN,386.15,1,CC(C)(C)[Sn](Cl)(Cl)C(C)(C)C,0,1,1,0
DI-n-BUTYLDIMETHOXYTIN,383.15,1,CCCC[Sn](CCCC)(OC)OC,0,1,1,0
DIMETHYLAMINOTRI-n-BUTYLTIN,388.15,1,CCCC[Sn](CCCC)(CCCC)N(C)C,0,1,1,0
DIMETHYLAMINOTRIMETHYLTIN,274.15,1,CN(C)[Sn](C)(C)C,0,1,1,0
DIOCTYLDICHLOROTIN,477.15,1,CCCCCCCC[Sn](Cl)(Cl)CCCCCCCC,0,1,1,0
DIOCTYLDILAURYLTIN,471.15,1,CCCCCCCCCCCC[Sn](CCCCCCCC)(CCCCCCCC)CCCCCCCCCCCC,0,1,1,0
DIVINYLDICHLOROTIN,477.15,1,C=C[Sn](Cl)(Cl)C=C,0,1,1,0
1-ETHOXYVINYLTRI-n-BUTYLTIN,386.15,1,C=C(OCC)[Sn](CCCC)(CCCC)CCCC,0,1,1,0
ETHYNYLTRI-n-BUTYLTIN,346.15,1,C#C[Sn](CCCC)(CCCC)CCCC,0,1,1,0
PHENYLETHYNYLTRI-n-BUTYLTIN,386.15,1,CCCC[Sn](C#Cc1ccccc1)(CCCC)CCCC,0,1,1,0
PHENYLTRI-n-BUTYLTIN,380.15,1,CCCC[Sn](CCCC)(CCCC)c1ccccc1,0,1,1,0
hexanedioic acid,464.15,1,C(CCC(=O)O)CC(=O)O,0,0,0,1
2-aminobenzoic acid,444.15,1,C1=CC=C(C(=C1)C(=O)O)N,0,0,0,1
benzoic acid,394.15,1,C1=CC=C(C=C1)C(=O)O,0,0,0,1
formic acid,342.15,1,C(=O)O,0,0,0,1
2-chloroacetic acid,423.15,1,C(C(=O)O)Cl,0,0,0,1
"2-hydroxypropane-1,2,3-tricarboxylic acid",373.15,1,C(C(=O)O)C(CC(=O)O)(C(=O)O)O,0,0,0,1
2-hydroxybenzoic acid,430.15,1,C1=CC=C(C(=C1)C(=O)O)O,0,0,0,1
"2,3-dihydroxybutanedioic acid",483.15,1,C(C(C(=O)O)O)(C(=O)O)O,0,0,0,1
pyridine-3-carboxylic acid,466.15,1,C1=CC(=CN=C1)C(=O)O,0,0,0,1
2-phenylacetic acid,405.15,1,C1=CC=C(C=C1)CC(=O)O,0,0,0,1
phthalic acid,441.15,1,C1=CC=C(C(=C1)C(=O)O)C(=O)O,0,0,0,1
butanedioic acid,433.15,1,C(CC(=O)O)C(=O)O,0,0,0,1
2-sulfanylacetic acid,386.15,1,C(C(=O)O)S,0,0,0,1
2-acetyloxybenzoic acid,523.15,1,CC(=O)OC1=CC=CC=C1C(=O)O,0,0,0,1
nonanedioic acid,483.15,1,C(CCCC(=O)O)CCCC(=O)O,0,0,0,1
decanoic acid,386.15,1,CCCCCCCCCC(=O)O,0,0,0,1
2-propylpentanoic acid,384.15,1,CCCC(CCC)C(=O)O,0,0,0,1
dodecanoic acid,386.15,1,CCCCCCCCCCCC(=O)O,0,0,0,1
2-methylprop-2-enoic acid,350.15,1,CC(=C)C(=O)O,0,0,0,1
decanedioic acid,493.15,1,C(CCCCC(=O)O)CCCC(=O)O,0,0,0,1
4-methylbenzenesulfonic acid,457.15,1,CC1=CC=C(C=C1)S(=O)(=O)O,0,0,0,1
4-nitrobenzoic acid,475.15,1,C1=CC(=CC=C1C(=O)O)[N+](=O)[O-],0,0,0,1
2-bromoacetic acid,386.15,1,C(C(=O)O)Br,0,0,0,1
4-chlorobenzoic acid,511.15,1,C1=CC(=CC=C1C(=O)O)Cl,0,0,0,1
benzenesulfonic acid,386.15,1,C1=CC=C(C=C1)S(=O)(=O)O,0,0,0,1
terephthalic acid,533.15,1,C1=CC(=CC=C1C(=O)O)C(=O)O,0,0,0,1
nonanoic acid,406.15,1,CCCCCCCCC(=O)O,0,0,0,1
"2-(2,4-dichlorophenoxy)propanoic acid",477.15,1,CC(C(=O)O)OC1=C(C=C(C=C1)Cl)Cl,0,0,0,1
"1,3-dioxo-2-benzofuran-5-carboxylic acid",500.15,1,C1=CC2=C(C=C1C(=O)O)C(=O)OC2=O,0,0,0,1
2-hydroxy-4-methylsulfanylbutanoic acid,394.15,1,CSCCC(C(=O)O)O,0,0,0,1
2-chloropropanoic acid,380.15,1,CC(C(=O)O)Cl,0,0,0,1
2-ethylpropanedioic acid,358.15,1,CCC(C(=O)O)C(=O)O,0,0,0,1
"2,2-dibromoacetic acid",386.15,1,C(C(=O)O)(Br)Br,0,0,0,1
2-dodecylbenzenesulfonic acid,422.15,1,CCCCCCCCCCCCC1=CC=CC=C1S(=O)(=O)O,0,0,0,1
"2-methylpropanoic acid;2,2,4-trimethylpentane-1,3-diol",393.15,1,CC(C)C(C(C)(C)CO)O.CC(C)C(=O)O,0,0,0,1
"7,7-dimethyloctanoic acid",367.15,1,CC(C)(C)CCCCCC(=O)O,0,0,0,1
"1,1,2,2,3,3,4,4,5,5,6,6,7,7,8,8,8-heptadecafluorooctane-1-sulfonic acid",284.15,1,C(C(C(C(C(F)(F)S(=O)(=O)O)(F)F)(F)F)(F)F)(C(C(C(F)(F)F)(F)F)(F)F)(F)F,0,0,0,1
3-[bis(2-carboxyethyl)phosphanyl]propanoic acid,475.15,1,C(CP(CCC(=O)O)CCC(=O)O)C(=O)O,0,0,0,1
(E)-but-2-enedioic acid,546.15,1,C(=CC(=O)O)C(=O)O,0,0,0,1
(Z)-octadec-9-enoic acid,462.15,1,CCCCCCCCC=CCCCCCCCC(=O)O,0,0,0,1
2-bromo-2-chloroacetic acid,383.15,1,C(C(=O)O)(Cl)Br,0,0,0,1
3-[bis(2-carboxyethyl)phosphanyl]propanoic acid;hydrochloride,475.15,1,C(CP(CCC(=O)O)CCC(=O)O)C(=O)O.Cl,0,0,0,1
aceticacid,313,1,C(C)(=O)O,0,0,0,1
propionicacid,331,1,C(CC)(=O)O,0,0,0,1
butanoicacid,342,1,C(CCC)(=O)O,0,0,0,1
pentanoicacid,358,1,C(CCCC)(=O)O,0,0,0,1
hexanoicacid,375,1,C(CCCCC)(=O)O,0,0,0,1
heptanoicacid,382,1,C(CCCCCC)(=O)O,0,0,0,1
2-methylpropanoicacid,332,1,CC(C(=O)O)C,0,0,0,1
3-methylbutanoicacid,347,1,CC(CC(=O)O)C,0,0,0,1
2-methylbutanoicacid,350,1,CC(C(=O)O)CC,0,0,0,1
2-ethylbutanoicacid,360,1,C(C)C(C(=O)O)CC,0,0,0,1
"3,3-dimethylbutanoicacid",361,1,CC(CC(=O)O)(C)C,0,0,0,1
4-methylpentanoicacid,370,1,CC(CCC(=O)O)C,0,0,0,1
2-methylpentanoicacid,364,1,CC(C(=O)O)CCC,0,0,0,1
2-methylhexanoicacid,378,1,CC(C(=O)O)CCCC,0,0,0,1
3-methylhexanoicacid,376,1,CC(CC(=O)O)CCC,0,0,0,1
4-methylhexanoicacid,376,1,CC(CCC(=O)O)CC,0,0,0,1
acrylicacid,327,1,C(C=C)(=O)O,0,0,0,1
trans-2-pentenoicacid,375,1,C(\C=C\CC)(=O)O,0,0,0,1
Adipic acid,464.15,1,O=C(O)CCCCC(=O)O,0,0,0,1
Hydrocyanic acid,255.15,1,C#N,0,0,0,1
Picric acid,423.15,1,O=[N+]([O-])c1cc([N+](=O)[O-])c(O)c([N+](=O)[O-])c1,0,0,0,1
carbonic acid,442.95,1,O=C(O)O,0,0,0,1
"Thiocyanic acid, methyl ester",311.15,1,CSC#N,0,0,0,1
"Acetic acid, 2-oxo-",377.05,1,O=CC(=O)O,0,0,0,1
"Acetic acid, hydrazide",375.75,1,CC(=O)NN,0,0,0,1
"Carbamic acid, methyl ester",378.35,1,COC(N)=O,0,0,0,1
"Acetic acid, hydroxy-",401.85,1,O=C(O)CO,0,0,0,1
ethanethioic S-acid,284.25,1,CC(=O)S,0,0,0,1
methylphosphonous acid,343.35,1,CP(O)O,0,0,0,1
"Isocyanic acid, allyl ester",316.15,1,C=CCN=C=O,0,0,0,1
but-2-ynoic acid,364.05,1,CC#CC(=O)O,0,0,0,1
"Acetic acid, cyano-",380.95,1,N#CCC(=O)O,0,0,0,1
"2-Propenoic acid, 2-methyl-",347.322,1,C=C(C)C(=O)O,0,0,0,1
(Z)-but-2-enoic acid,354.75,1,C/C=C\C(=O)O,0,0,0,1
But-3-enoic acid,341.35,1,C=CCC(=O)O,0,0,0,1
cyclopropanecarboxylic acid,344.85,1,O=C(O)C1CC1,0,0,0,1
"Formic acid, allyl ester (8CI)",279.65,1,C=CCOC=O,0,0,0,1
"Isothiocyanic acid, ethyl ester",305.35,1,CCN=C=S,0,0,0,1
"Carbamic acid, ethyl ester",370.35,1,CCOC(N)=O,0,0,0,1
"Propanoic acid, 2-hydroxy-",383.086,1,CC(O)C(=O)O,0,0,0,1
"Acetic acid, 2-methoxy-",394.15,1,COCC(=O)O,0,0,0,1
"Propanoic acid, 2-hydroxy-, (S)- (9CI)",383.05,1,C[C@H](O)C(=O)O,0,0,0,1
"Carbazic acid, methyl ester (8CI)",359.25,1,COC(=O)NN,0,0,0,1
"Acetic acid, fluoro-, methyl ester",290.75,1,COC(=O)CF,0,0,0,1
"Acetic acid, mercapto-",372.95,1,O=C(O)CS,0,0,0,1
dimethylphosphinic acid,410.85,1,CP(C)(=O)O,0,0,0,1
"Acetic acid, chloro-",399.15,1,O=C(O)CCl,0,0,0,1
"Carbonochloridic acid, methyl ester",280.95,1,COC(=O)Cl,0,0,0,1
"Acetic acid, 2,2-difluoro-",351.15,1,O=C(O)C(F)F,0,0,0,1
"Phosphonofluoridic acid, methyl-",318.75,1,CP(=O)(O)F,0,0,0,1
"Acrylic acid, vinyl ester (6CI,7CI,8CI)",286.65,1,C=COC(=O)C=C,0,0,0,1
"Ethanimidic acid, N-cyano-, methyl ester",292.05,1,COC(C)=NC#N,0,0,0,1
"Isocyanic acid, butyl ester",290.95,1,CCCCN=C=O,0,0,0,1
"Isothiocyanic acid, allyl ester",309.45,1,C=CCN=C=S,0,0,0,1
"2-Propenoic acid, 2-methyl-, methyl ester",283.15,1,C=C(C)C(=O)OC,0,0,0,1
"2-Butenoic acid, 3-methyl-",369.15,1,CC(C)=CC(=O)O,0,0,0,1
(Z)-2-methylbut-2-enoic acid,369.05,1,C/C=C(/C)C(=O)O,0,0,0,1
4-Pentenoic acid,362.15,1,C=CCCC(=O)O,0,0,0,1
"Acetic acid, 2-propenyl ester",279.85,1,C=CCOC(C)=O,0,0,0,1
"2-Butenoic acid, methyl ester, (2E)-",277.15,1,C/C=C/C(=O)OC,0,0,0,1
cyclobutanecarboxylic acid,356.15,1,O=C(O)C1CCC1,0,0,0,1
2-methylcyclopropane-1-carboxylic acid,360.95,1,CC1CC1C(=O)O,0,0,0,1
3-oxobutanoic acid,384.95,1,CC(=O)CC(=O)O,0,0,0,1
"Propanoic acid, ethyl ester",285.35,1,CCOC(=O)CC,0,0,0,1
"Formic acid, 2-methylpropyl ester",283.15,1,CC(C)COC=O,0,0,0,1
"Formic acid, sec-butyl ester (8CI)",276.65,1,CCC(C)OC=O,0,0,0,1
"Carbamic acid, N-methyl-, ethyl ester",330.95,1,CCOC(=O)NC,0,0,0,1
"Nitrous acid, butyl ester",261.15,1,CCCCON=O,0,0,0,1
"Nitrous acid, 2-methylpropyl ester",252.15,1,CC(C)CON=O,0,0,0,1
Propanedioic acid,475.05,1,O=C(O)CC(=O)O,0,0,0,1
"Acetic acid, 2-fluoro-, ethyl ester",303.15,1,CCOC(=O)CF,0,0,0,1
"Propanoic acid, 3-mercapto-",373.887,1,O=C(O)CCS,0,0,0,1
"Acetic acid, mercapto-, methyl ester",329.15,1,COC(=O)CS,0,0,0,1
"Acrylic acid, 3-chloro-, (Z)- (8CI)",343.25,1,O=C(O)/C=C\Cl,0,0,0,1
"Methanesulfinic acid, 1-amino-1-imino-",441.85,1,N=C(N)S(=O)O,0,0,0,1
"Propanoic acid, 3-chloro-",398.15,1,O=C(O)CCCl,0,0,0,1
"Propanoic acid, 2-chloro-",380.15,1,CC(Cl)C(=O)O,0,0,0,1
"Phosphonic acid, dimethyl ester",302.594,1,CO[PH](=O)OC,0,0,0,1
"Methanesulfonic acid, methyl ester",377.15,1,COS(C)(=O)=O,0,0,0,1
"2-Propenoic acid, 2-cyano-, methyl ester",340.75,1,C=C(C#N)C(=O)OC,0,0,0,1
2-Furancarboxylic acid,367.35,1,O=C(O)c1ccco1,0,0,0,1
1H-imidazole-5-carboxylic acid,526.35,1,O=C(O)c1cnc[nH]1,0,0,0,1
"Acrylic acid, allyl ester (8CI)",342.35,1,C=CCOC(=O)C=C,0,0,0,1
"2-Butenoic acid, ethenyl ester",300.15,1,C=COC(=O)C=CC,0,0,0,1
"2,4-Hexadienoic acid, (2E,4E)-",400.15,1,C/C=C/C=C/C(=O)O,0,0,0,1
2-chloro-2-fluoroacetic acid,331.75,1,O=C(O)C(F)Cl,0,0,0,1
"Fluorosulfuric acid, methyl ester",283.15,1,COS(=O)(=O)F,0,0,0,1
"Acetic acid, diazo-, ethyl ester",319.15,1,CCOC(=O)C=[N+]=[N-],0,0,0,1
"2-Propenoic acid, 2-methyl-, ethyl ester",288.75,1,C=C(C)C(=O)OCC,0,0,0,1
"Butanoic acid, ethenyl ester (9CI)",299.55,1,C=COC(=O)CCC,0,0,0,1
"Propionic acid, allyl ester (8CI)",306.65,1,C=CCOC(=O)CC,0,0,0,1
cyclopentanecarboxylic acid,366.15,1,O=C(O)C1CCCC1,0,0,0,1
(E)-hex-3-enoic acid,379.55,1,CC/C=C/CC(=O)O,0,0,0,1
"2,2-dimethylbut-3-enoic acid",357.45,1,C=CC(C)(C)C(=O)O,0,0,0,1
"2-Butenoic acid, ethyl ester",301.45,1,CC=CC(=O)OCC,0,0,0,1
(E)-2-methylpent-2-enoic acid,380.15,1,CC/C=C(\C)C(=O)O,0,0,0,1
(E)-2-methylpent-3-enoic acid,370.55,1,C/C=C/C(C)C(=O)O,0,0,0,1
hex-5-enoic acid,373.25,1,C=CCCCC(=O)O,0,0,0,1
(E)-4-methylpent-2-enoic acid,379.15,1,CC(C)/C=C/C(=O)O,0,0,0,1
"Butanoic acid, 3-oxo-, methyl ester",334.75,1,COC(=O)CC(C)=O,0,0,0,1
"Pentanoic acid, 4-oxo-",388.15,1,CC(=O)CCC(=O)O,0,0,0,1
"Pyruvic acid, ethyl ester (8CI)",318.15,1,CCOC(=O)C(C)=O,0,0,0,1
"2-Propenoic acid, 2-hydroxyethyl ester",371.45,1,C=CC(=O)OCCO,0,0,0,1
2-oxopentanoic acid,349.75,1,CCCC(=O)C(=O)O,0,0,0,1
3-methyl-2-oxobutanoic acid,344.15,1,CC(C)C(=O)C(=O)O,0,0,0,1
"Pentanoic acid, 2-methyl-",364.15,1,CCCC(C)C(=O)O,0,0,0,1
"Pentanoic acid, 3-methyl-",361.55,1,CCC(C)CC(=O)O,0,0,0,1
"Propanoic acid, propyl ester",297.55,1,CCCOC(=O)CC,0,0,0,1
"Acetic acid, 2-methylpropyl ester",294.85,1,CC(=O)OCC(C)C,0,0,0,1
"2,2-dimethylbutanoic acid",352.55,1,CCC(C)(C)C(=O)O,0,0,0,1
"2,3-dimethylbutanoic acid",356.55,1,CC(C)C(C)C(=O)O,0,0,0,1
"Butanoic acid, 2-methyl-, methyl ester",292.55,1,CCC(C)C(=O)OC,0,0,0,1
"Nitrous acid, 3-methylbutyl ester",283.15,1,CC(C)CCON=O,0,0,0,1
"Nitrous acid, pentyl ester",282.05,1,CCCCCON=O,0,0,0,1
"Carbamic acid, butyl ester",381.15,1,CCCCOC(N)=O,0,0,0,1
"Butanoic acid, 4-(methylamino)-",370.45,1,CNCCCC(=O)O,0,0,0,1
"Propanedioic acid, oxo- (9CI)",486.15,1,O=C(O)C(=O)C(=O)O,0,0,0,1
Butanedioic acid,384.05,1,O=C(O)CCC(=O)O,0,0,0,1
"Propanoic acid, 2-hydroxy-, ethyl ester",327.75,1,CCOC(=O)C(C)O,0,0,0,1
"Carbonic acid, diethyl ester",304.25,1,CCOC(=O)OCC,0,0,0,1
"Propanoic acid, 2-hydroxy-, ethyl ester, (2S)-",319.15,1,CCOC(=O)[C@H](C)O,0,0,0,1
"Propanoic acid, 3-nitro- (9CI)",421.55,1,O=C(O)CC[N+](=O)[O-],0,0,0,1
"Acetic acid, nitro-, methyl ester",378.15,1,COC(=O)C[N+](=O)[O-],0,0,0,1
"Acetic acid, mercapto-, ethyl ester",320.95,1,CCOC(=O)CS,0,0,0,1
"Carbonochloridic acid, 2-propenyl ester",361.15,1,C=CCOC(=O)Cl,0,0,0,1
"Carbonochloridic acid, 1-methylethyl ester",298.15,1,CC(C)OC(=O)Cl,0,0,0,1
"Butyric acid, 4-chloro- (8CI)",374.25,1,O=C(O)CCCCl,0,0,0,1
"Acetic acid, chloro-, ethyl ester",338.75,1,CCOC(=O)CCl,0,0,0,1
3-Pyridinecarboxylic acid,403.85,1,O=C(O)c1cccnc1,0,0,0,1
4-Pyridinecarboxylic acid,466.45,1,O=C(O)c1ccncc1,0,0,0,1
"Phosphorous acid, trimethyl ester",356.85,1,COP(OC)OC,0,0,0,1
"Phosphonic acid, methyl-, dimethyl ester",342.05,1,COP(C)(=O)OC,0,0,0,1
"Acetic acid, 2,2-difluoro-, ethyl ester",298.15,1,CCOC(=O)C(F)F,0,0,0,1
"Formic acid, chlorothio-, S-ethyl ester (7CI,8CI)",303.75,1,CCSC(=O)Cl,0,0,0,1
"2-Propenoic acid, 2-cyano-, ethyl ester",352.35,1,C=C(C#N)C(=O)OCC,0,0,0,1
"Phosphoric acid, dimethyl ester",323.55,1,COP(=O)([O-])OC,0,0,0,1
"Phosphoric acid, monoethyl ester",379.55,1,CCOP(=O)([O-])[O-],0,0,0,1
Bis-(hydroxymethyl)-phosphinic acid,578.25,1,O=P(O)(CO)CO,0,0,0,1
"2-Furancarboxylic acid, methyl ester",331.75,1,COC(=O)c1ccco1,0,0,0,1
"Sulfuric acid, dimethyl ester",356.483,1,COS(=O)(=O)OC,0,0,0,1
"2-Propenoic acid, 2-methyl-, 2-propenyl ester",310.15,1,C=CCOC(=O)C(=C)C,0,0,0,1
cyclohexene-1-carboxylic acid,384.15,1,O=C(O)C1=CCCCC1,0,0,0,1
Cyclohex-3-ene-1-carboxylic acid,383.05,1,O=C(O)C1CC=CCC1,0,0,0,1
"Valeric acid, 5-cyano-",419.55,1,N#CCCCCC(=O)O,0,0,0,1
"2-Propenoic acid, oxiranylmethyl ester",349.25,1,C=CC(=O)OCC1CO1,0,0,0,1
Cyclohexanecarboxylic acid,380.15,1,O=C(O)C1CCCCC1,0,0,0,1
"2-Propenoic acid, 2-methylpropyl ester",305.95,1,C=CC(=O)OCC(C)C,0,0,0,1
hept-6-enoic acid,386.45,1,C=CCCCCC(=O)O,0,0,0,1
2-cyclopentylacetic acid,387.15,1,O=C(O)CC1CCCC1,0,0,0,1
"2,2,3,4-tetramethylhexane",304,1,CCC(C)C(C)C(C)(C)C,0,0,0,0
9-phenylacridine,452.95,1,c1ccc(-c2c3ccccc3nc3ccccc23)cc1,0,0,0,0
"methyl 3,4,5-trimethoxybenzoate",388.35,1,COC(=O)c1cc(OC)c(OC)c(OC)c1,0,0,0,0
"(Z)-1,2-dichloroethene",277.15,1,C(=CCl)Cl,0,0,0,0
4-methylmorpholine,297.15,1,CN1CCOCC1,0,0,0,0
2tertbutylfuran,280,1,CC(C)(C)c1ccco1,0,0,0,0
1-bromo-3-(trifluoromethyl)benzene,316.45,1,FC(F)(F)c1cccc(Br)c1,0,0,0,0
"Methane, trichlorofluoro-",275.15,1,FC(Cl)(Cl)Cl,0,0,0,0
"1,2-Benzenedicarboxylic acid, butyl phenylmethyl ester",471.45,1,CCCCOC(=O)c1ccccc1C(=O)OCc1ccccc1,0,0,0,1
"Butanamide, N,N-dimethyl-3-oxo-",355.55,1,CC(=O)CC(=O)N(C)C,0,0,0,0
"1,2-Benzenedicarboxylic acid, ditridecyl ester",547.35,1,CCCCCCCCCCCCCOC(=O)c1ccccc1C(=O)OCCCCCCCCCCCCC,0,0,0,1
Divinyldimethylsilane,281.15,1,C=C[Si](C)(C)C=C,1,1,0,0
"N,N-dipropylaniline",375.35,1,CCCN(CCC)c1ccccc1,0,0,0,0
N-ethylisopropylamine,289,1,CCNC(C)C,0,0,0,0
"Phosphorous acid, tris(1-methylethyl) ester",335.15,1,CC(C)OP(OC(C)C)OC(C)C,0,0,0,1
"3,5,5-trimethylcyclohex-2-en-1-one",357.15,1,CC1=CC(=O)CC(C1)(C)C,0,0,0,0
"1-Heptanol, 2-(phenylmethylene)-",407.25,1,CCCCCC(=Cc1ccccc1)CO,0,0,0,0
3-Chloropropylmethyldimethoxysilane,318.15,1,CO[Si](C)(CCCCl)OC,1,1,0,0
"Methane, bromodichloro-",274.45,1,ClC(Cl)Br,0,0,0,0
Benzenesulphonamide,417.75,1,NS(=O)(=O)c1ccccc1,0,0,0,0
"Acetic acid, (2,4-dichlorophenoxy)-, butyl ester",405.15,1,CCCCOC(=O)COc1ccc(Cl)cc1Cl,0,0,0,1
"Arsonous dichloride, (2-chloroethenyl)-",357.55,1,ClC=C[As](Cl)Cl,0,1,0,0
2-hydroxy-2-methylpropanenitrile,347.15,1,CC(C)(C#N)O,0,0,0,0
methyl (3E)-pent-3-enoate,297,1,C/C=C/CC(=O)OC,0,0,0,0
Methylvinylketone,266.15,1,C=CC(C)=O,0,0,0,0
"Phosphorothioic acid, O,O-dimethyl O-(p-(methylthio)phenyl) ester",420.95,1,COP(=S)(OC)Oc1ccc(SC)cc1,0,0,0,1
"Quinoline, 5-methyl-",377.55,1,Cc1cccc2ncccc12,0,0,0,0
1-Octacosanol,408.45,1,CCCCCCCCCCCCCCCCCCCCCCCCCCCCO,0,0,0,0
propanoyl propanoate,336.15,1,CCC(=O)OC(=O)CC,0,0,0,0
METHYL n-PROPYL SULFIDE,270,1,CCCSC,0,0,0,0
"Imidodicarbonimidic diamide, N-phenyl-",461.85,1,N=C(N)NC(=N)Nc1ccccc1,0,0,0,0
2-ethylthiophene,294.25,1,CCc1cccs1,0,0,0,0
"1-Butanamine, N-ethyl-N-nitroso- (9CI)",355.75,1,CCCCN(CC)N=O,0,0,0,0
1-Methyl-1-phenylthiourea,388.45,1,CN(C(N)=S)c1ccccc1,0,0,0,0
"N,N-dimethylacetamide",336,1,CC(=O)N(C)C,0,0,0,0
4-Bromobenzyl alcohol,388.85,1,OCc1ccc(Br)cc1,0,0,0,0
"Phosphorothioic acid, O-(4-bromo-2,5-dichlorophenyl) O,O-diethyl ester",462.05,1,CCOP(=S)(OCC)Oc1cc(Cl)c(Br)cc1Cl,0,0,0,1
"Bicyclo(3.1.1)hept-2-ene-2-ethanol, 6,6-dimethyl-, acetate",373.85,1,CC(=O)OCCC1=CCC2CC1C2(C)C,0,0,0,0
tert-butylamine,235,1,C(C)(C)(C)N,0,0,0,0
"Butanamide, N-(2-methoxyphenyl)-3-oxo-",430.15,1,COc1ccccc1NC(=O)CC(C)=O,0,0,0,0
2-METHYLBUTYRALDEHYDE,271,1,CCC(C)C=O,0,0,0,0
"Benzene, 1-fluoro-2,4-dinitro-",405.95,1,O=[N+]([O-])c1ccc(F)c([N+](=O)[O-])c1,0,0,0,0
phenyl(piperidin-1-yl)methanone,418.15,1,O=C(c1ccccc1)N1CCCCC1,0,0,0,0
"2,3-dimethyloxirane",255.15,1,CC1C(O1)C,0,0,0,0
"Naphthalene, 1,3-dimethyl-",382.55,1,Cc1cc(C)c2ccccc2c1,0,0,0,0
butanamide,361.05,1,CCCC(N)=O,0,0,0,0
"Acetamide, N-(4-(2-hydroxy-3-((1-methylethyl)amino)propoxy)phenyl)-",525.45,1,CC(=O)Nc1ccc(OCC(O)CNC(C)C)cc1,0,0,0,0
1-(bromomethyl)-4-methylbenzene,370.95,1,Cc1ccc(CBr)cc1,0,0,0,0
"1,1-diiodoethane",345.65,1,CC(I)I,0,0,0,0
"Benzoic acid, o-benzoyl-, methyl ester (8CI)",427.55,1,COC(=O)c1ccccc1C(=O)c1ccccc1,0,0,0,1
2-bromo-3-methylthiophene,341.45,1,Cc1ccsc1Br,0,0,0,0
2-Chloro-6-nitrobenzaldehyde,407.65,1,O=Cc1c(Cl)cccc1[N+](=O)[O-],0,0,0,0
"2,3,4,6-tetrachlorophenol",373.15,1,C1=C(C(=C(C(=C1Cl)Cl)Cl)O)Cl,0,0,0,0
 Dodecamethylpentasiloxane,352.15,1,C[Si](C)(C)O[Si](C)(C)O[Si](C)(C)O[Si](C)(C)O[Si](C)(C)C,1,1,0,0
"Naphtho(2,3-h)quinoline",476.35,1,c1ccc2cc3c(ccc4cccnc43)cc2c1,0,0,0,0
3-methylphenol,359.15,1,CC1=CC(=CC=C1)O,0,0,0,0
3-phenylprop-2-en-1-ol,399.15,1,C1=CC=C(C=C1)C=CCO,0,0,0,0