compound,flashpoint,pure substance,smiles,is_silicon,is_metallic,is_tin,is_acid
"Benzoic acid, 2,6-dimethoxy-",399.65,1,COc1cccc(OC)c1C(=O)O,0,0,0,1
pyridine-3-carboxamide,455.15,1,C1=CC(=CN=C1)C(=O)N,0,0,0,0
Dimethoxypropane,266.15,1,COC(C)(C)OC,0,0,0,0
"Benzene, (1,2-dibromoethyl)-",389.65,1,BrCC(Br)c1ccccc1,0,0,0,0
phenoxymethylbenzene,383.95,1,c1ccc(COc2ccccc2)cc1,0,0,0,0
"9(10H)-Anthracenone, 10-acetyl-1,8-dihydroxy-",528.05,1,CC(=O)C1c2cccc(O)c2C(=O)c2c(O)cccc21,0,0,0,0
"Acetic acid, 2,4-hexadienyl ester",352.75,1,CC=CC=CCOC(C)=O,0,0,0,1
"1,3,5-tribromo-2-methoxybenzene",394.65,1,COc1c(Br)cc(Br)cc1Br,0,0,0,0
"1H-Indazole, 5-nitro-",458.75,1,O=[N+]([O-])c1ccc2[nH]ncc2c1,0,0,0,0
"1,3,5-Triazine-2,4-diamine, N-ethyl-N'-(1-methylethyl)-6-(methylthio)-",466.65,1,CCNc1nc(NC(C)C)nc(SC)n1,0,0,0,0
"2-Propanol, 1,1,1-trifluoro-",311.95,1,CC(O)C(F)(F)F,0,0,0,0
1-pentanethiol,291,1,C(CCCC)S,0,0,0,0
DI-n-OCTYL TEREPHTHALATE,507,1,CCCCCCCCOC(=O)c1ccc(C(=O)OCCCCCCCC)cc1,0,0,0,0
"1,1,2,2-TETRAPHENYLETHANE",448,1,c1ccc(C(c2ccccc2)C(c2ccccc2)c2ccccc2)cc1,0,0,0,0
"Benz(a)anthracene, 12-methyl-",490.95,1,Cc1c2ccccc2cc2ccc3ccccc3c12,0,0,0,0
"(2,4-dimethylphenyl)methanol",374.85,1,Cc1ccc(CO)c(C)c1,0,0,0,0
Pent-2-en-4-yn-1-ol,337.35,1,C#CC=CCO,0,0,0,0
Triphenyl phosphate,493.15,1,O=P(Oc1ccccc1)(Oc1ccccc1)Oc1ccccc1,0,0,0,0
"Phenol, 2,4-bis(1,1-dimethylpropyl)-",416.15,1,CCC(C)(C)c1ccc(O)c(C(C)(C)CC)c1,0,0,0,0
ethyl pyridine-3-carboxylate,366.15,1,CCOC(=O)c1cccnc1,0,0,0,0
phenylmethanethiol,343.15,1,C1=CC=C(C=C1)CS,0,0,0,0
4-[2-(4-hydroxyphenyl)propan-2-yl]phenol,480,1,Oc1ccc(cc1)C(C)(C)c1ccc(O)cc1,0,0,0,0
"1H-Indazole, 7-nitro-",458.75,1,O=[N+]([O-])c1cccc2cn[nH]c12,0,0,0,0
hexanenitrile,320,1,C(CCCCC)#N,0,0,0,0
"Urea, butyl-",335.45,1,CCCCNC(N)=O,0,0,0,0
"(1R,3S)-1-ethyl-3-methylcyclohexane",305.05,1,CC[C@@H]1CCC[C@H](C)C1,0,0,0,0
"4-Hexen-1-ol, (4E)-",334.25,1,C/C=C/CCCO,0,0,0,0
2-butan-2-ylphenol,385.15,1,CCC(C)C1=CC=CC=C1O,0,0,0,0
"Morphinan-3-ol, 17-(2-propenyl)-",487.35,1,C=CCN1CC[C@]23CCCC[C@H]2[C@H]1Cc1ccc(O)cc13,0,0,0,0
ethyl prop-2-ynoate,296.15,1,C#CC(=O)OCC,0,0,0,0
4-chloro-2-methoxyphenol,373.55,1,COc1cc(Cl)ccc1O,0,0,0,0
"alpha,alpha,alpha,4-Tetrafluoro-m-toluidine",364.15,1,Nc1ccc(F)c(C(F)(F)F)c1,0,0,0,0
"Benzenamine, 3-chloro-2-methyl-",385.95,1,Cc1c(N)cccc1Cl,0,0,0,0
"1,4-Benzenediamine, N-(1,4-dimethylpentyl)-N'-phenyl-",525.85,1,CC(C)CCC(C)Nc1ccc(Nc2ccccc2)cc1,0,0,0,0
9H-fluorene,424.15,1,C1C2=CC=CC=C2C3=CC=CC=C31,0,0,0,0
"Benzenemethanol, 4-nitro-",421.25,1,O=[N+]([O-])c1ccc(CO)cc1,0,0,0,0
ethylvinylether,228,1,C(C)OC=C,0,0,0,0
"Benzene, (2-methoxyethyl)-",325.65,1,COCCc1ccccc1,0,0,0,0
"Sulfide, phenyl 2-propynyl (6CI,7CI,8CI)",349.85,1,C#CCSc1ccccc1,0,0,0,0
2-(2-hydroxypropoxy)propan-1-ol,472.15,1,CC(CO)OCC(C)O,0,0,0,0
1-Phenazinamine (9CI),518.55,1,Nc1cccc2nc3ccccc3nc12,0,0,0,0
"Butane, 1,1-bis(p-chlorophenyl)-2-nitro-",495.85,1,CCC(C(c1ccc(Cl)cc1)c1ccc(Cl)cc1)[N+](=O)[O-],0,0,0,0
4-pentenylacetate,318,1,C(CCC=C)CC(=O)[O-],0,0,0,0
"ethyl buta-2,3-dienoate",320,1,CCOC(=O)C=C=C,0,0,0,0
"4,4,4-trifluorobutan-1-ol",306.95,1,OCCCC(F)(F)F,0,0,0,0
"1,1-dichloro-2-propan-2-yloxypropane",358.15,1,CC(C)OC(C)C(Cl)Cl,0,0,0,0
"Guanidine, N,N'-bis(2-methylphenyl)-",466.45,1,Cc1ccccc1NC(=N)Nc1ccccc1C,0,0,0,0
m-AMINOPHENYLTRIMETHOXYSILANE,453.15,1,CO[Si](OC)(OC)c1cccc(N)c1,1,1,0,0
2-ethylbutyl acetate,327.15,1,CCC(CC)COC(=O)C,0,0,0,0
"bis(2-methylpropyl) benzene-1,2-dicarboxylate",469.15,1,CC(C)COC(=O)C1=CC=CC=C1C(=O)OCC(C)C,0,0,0,0
"Benz(3,4)anthra(1,2-b)oxirene, 1a,11b-dihydro- (9CI)",485.55,1,c1ccc2c(c1)-c1cc3ccccc3cc1C1OC21,0,0,0,0
"propane-1,2-diol",372.15,1,CC(CO)O,0,0,0,0
2-ethoxyethanamine,290.85,1,CCOCCN,0,0,0,0
"Morpholine, 4-cyclohexyl-",342.75,1,C1CCC(N2CCOCC2)CC1,0,0,0,0
3-tert-butylaniline,374,1,C(C)(C)(C)C=1C=C(N)C=CC1,0,0,0,0
3-Chlorobenzyl alcohol,368.55,1,OCc1cccc(Cl)c1,0,0,0,0
nonylformate,361,1,C(CCCCCCCC)OC=O,0,0,0,0
2-methyl-1-butanol,316,1,CC(CO)CC,0,0,0,0
"Benzenamine, N,N-diethyl-4-nitro-",418.05,1,CCN(CC)c1ccc([N+](=O)[O-])cc1,0,0,0,0
ethyl undec-10-enoate,386,1,C=CCCCCCCCCC(=O)OCC,0,0,0,0
"3,3,4-trimethylhexane",288,1,CC(CC)(C(CC)C)C,0,0,0,0
"2-Propenoic acid, 2-bromoethyl ester (9CI)",340.75,1,C=CC(=O)OCCBr,0,0,0,1
"Cyclohexanol, 2-(1,1-dimethylethyl)-, acetate",363.95,1,CC(=O)OC1CCCCC1C(C)(C)C,0,0,0,0
"(2,6,6-trimethylcyclohex-2-en-1-yl)methanol",354.85,1,CC1=CCCC(C)(C)C1CO,0,0,0,0
3-Chlorobenzophenone,451.45,1,O=C(c1ccccc1)c1cccc(Cl)c1,0,0,0,0
"Hexane, 1-isothiocyanato-",363.75,1,CCCCCCN=C=S,0,0,0,0
"(2r)-2,4-dihydroxy-N-(3-hydroxypropyl)-3,3-dimethylbutanamide",386.15,1,CC(C)(CO)[C@@H](O)C(=O)NCCCO,0,0,0,0
1-ethoxypentane,289.55,1,CCCCCOCC,0,0,0,0
"2,3,3-trimethylbutan-2-ol",306.75,1,CC(C)(C)C(C)(C)O,0,0,0,0
cyclobutanone,283,1,C1(CCC1)=O,0,0,0,0
"Propionic acid, 2,3-dibromo-, ethyl ester (6CI,7CI,8CI)",364.15,1,CCOC(=O)C(Br)CBr,0,0,0,1
2-ethylphenol,351.15,1,CCC1=CC=CC=C1O,0,0,0,0
"Benzene, 1,2,3,4-tetrachloro-",385.05,1,Clc1ccc(Cl)c(Cl)c1Cl,0,0,0,0
"Benzoic acid, 3,5-dihydroxy-, methyl ester",420.75,1,COC(=O)c1cc(O)cc(O)c1,0,0,0,1
"(3,4-dimethylphenyl) acetate",364.65,1,CC(=O)Oc1ccc(C)c(C)c1,0,0,0,0
(NE)-N-(2-methyl-2-methylsulfanylpropylidene)hydroxylamine,391.15,1,CC(C)(C=NO)SC,0,0,0,0
"(1S,5S)-2,6,6-trimethylbicyclo[3.1.1]hept-2-en-4-one",358.15,1,CC1=CC(=O)[C@H]2C[C@@H]1C2(C)C,0,0,0,0
2-undecanol,380,1,CC(CCCCCCCCC)O,0,0,0,0
"1,3-dibromobutane",321.95,1,CC(Br)CCBr,0,0,0,0
"6-Hydroxy-1,3-benzoxathiol-2-one",455.45,1,O=c1oc2cc(O)ccc2s1,0,0,0,0
"Ethanamine, 2-chloro-N-(2-chloroethyl)-N-methyl-",293.65,1,CN(CCCl)CCCl,0,0,0,0
3-methylcyclohex-3-en-1-one,328.65,1,CC1=CCCC(=O)C1,0,0,0,0
phenylmethanol,374.15,1,C1=CC=C(C=C1)CO,0,0,0,0
"Phenol, 2,4,6-tri-tert-butyl- (6CI,7CI,8CI)",402.45,1,CC(C)(C)c1cc(C(C)(C)C)c(O)c(C(C)(C)C)c1,0,0,0,0
"1,2,4-Triazin-3(2H)-one, 5-amino-2-beta-D-ribofuranosyl-",550.15,1,Nc1cnn([C@@H]2O[C@H](CO)[C@@H](O)[C@H]2O)c(=O)n1,0,0,0,0
"Phenol, p-allyl- (8CI)",375.75,1,C=CCc1ccc(O)cc1,0,0,0,0
(Z)-2-bromobut-2-ene,284.25,1,C/C=C(/C)Br,0,0,0,0
4-acetyloxybutyl acetate,378.35,1,CC(=O)OCCCCOC(C)=O,0,0,0,0
"ethyl (2E,4E)-hexa-2,4-dienoate",342.55,1,C/C=C/C=C/C(=O)OCC,0,0,0,0
"Pentanamide, N,N-diethyl-4-oxo- (9CI)",383.85,1,CCN(CC)C(=O)CCC(C)=O,0,0,0,0
"2-Propanone, 1,1-dichloro-",297.55,1,CC(=O)C(Cl)Cl,0,0,0,0
(Z)-2-chlorobut-2-enedinitrile,341.55,1,N#C/C=C(\Cl)C#N,0,0,0,0
"Carbamic acid, 1-methylbutyl ester",367.35,1,CCCC(C)OC(N)=O,0,0,0,1
TETRA-n-OCTYLTIN,367.15,1,CCCCCCCC[Sn](CCCCCCCC)(CCCCCCCC)CCCCCCCC,0,1,1,0
"2,5-Dimethoxy-4-aminostilbene",517.45,1,COc1cc(C=Cc2ccccc2)c(OC)cc1N,0,0,0,0
"Acenaphthylene, 1,2-dihydro-5-nitro-",464.95,1,O=[N+]([O-])c1ccc2c3c(cccc13)CC2,0,0,0,0
"9H-Fluorene, 9-methyl- (9CI)",410.65,1,CC1c2ccccc2-c2ccccc21,0,0,0,0
diethyl 2-acetylpropanedioate,372.15,1,CCOC(=O)C(C(C)=O)C(=O)OCC,0,0,0,0
"Theophylline, 7-(p-(dimethylamino)benzyl)-",551.05,1,CN(C)c1ccc(Cn2cnc3c2c(=O)n(C)c(=O)n3C)cc1,0,0,0,0
"Cyclohexanone, 2-methyl-5-(1-methylethenyl)-",354.25,1,C=C(C)C1CCC(C)C(=O)C1,0,0,0,0
ethylmethacrylate,292,1,C(C)OC(C(=C)C)=O,0,0,0,0
"Propanoic acid, 3-bromo-",371.85,1,O=C(O)CCBr,0,0,0,1
propan-2-yl 2-chloropropanoate,317.85,1,CC(C)OC(=O)C(C)Cl,0,0,0,0
"1H-Indene, octahydro-",310.45,1,C1CCC2CCCC2C1,0,0,0,0
TRIPHENYLCHLOROTIN,343.15,1,Cl[Sn](c1ccccc1)(c1ccccc1)c1ccccc1,0,1,1,0
"1,2-dichloropropane",289.15,1,CC(CCl)Cl,0,0,0,0
"2-Benzoxazolamine, 5-chloro- (9CI)",418.55,1,Nc1nc2cc(Cl)ccc2o1,0,0,0,0
"Cyclohexanol, 1-ethynyl-",346.15,1,C#CC1(O)CCCCC1,0,0,0,0
"Carbamic acid, (3-chlorophenyl)-, 1-methylethyl ester (9CI)",378.85,1,CC(C)OC(=O)Nc1cccc(Cl)c1,0,0,0,1
icosylbenzene,470.05,1,CCCCCCCCCCCCCCCCCCCCc1ccccc1,0,0,0,0
"1,2,3,4,5-pentafluoro-6-iodobenzene",334.45,1,Fc1c(F)c(F)c(I)c(F)c1F,0,0,0,0
"Dibenz(a,h)acridine",513.45,1,c1ccc2c(c1)ccc1nc3c(ccc4ccccc43)cc12,0,0,0,0
2-Imidazolidinethione,316.65,1,S=C1NCCN1,0,0,0,0
"Phenol, 3,5-dimethyl-, methylcarbamate (9CI)",387.35,1,CNC(=O)Oc1cc(C)cc(C)c1,0,0,0,0
"Acrylonitrile, 3-(dimethylamino)- (7CI,8CI)",405.05,1,CN(C)C=CC#N,0,0,0,0
methoxyethene,217.15,1,COC=C,0,0,0,0
"Propane, 1-(2-biphenylyloxy)-2,3-epoxy- (6CI,7CI,8CI)",410.45,1,c1ccc(-c2ccccc2OCC2CO2)cc1,0,0,0,0
benzyl benzoate,421.15,1,C1=CC=C(C=C1)COC(=O)C2=CC=CC=C2,0,0,0,0
"1,3,5-Triazin-2(1H)-one, tetrahydro-1,3-bis(hydroxymethyl)-5-ethyl-",444.55,1,CCN1CN(CO)C(=O)N(CO)C1,0,0,0,0
2-phenoxyaniline,386.15,1,Nc1ccccc1Oc1ccccc1,0,0,0,0
"Butanoic acid, pentyl ester",340.95,1,CCCCCOC(=O)CCC,0,0,0,1
4-methyl-2-nitroaniline,430.15,1,CC1=CC(=C(C=C1)N)[N+](=O)[O-],0,0,0,0
"Morpholine, 4-cyclododecyl-2,6-dimethyl-",382.85,1,CC1CN(C2CCCCCCCCCCC2)CC(C)O1,0,0,0,0
"2H-Imidazole-2-thione, 1,3-dihydro-1-methyl-",320.55,1,Cn1cc[nH]c1=S,0,0,0,0
"2H-1,3,5-Thiadiazine-3(4H)-acetic acid, dihydro-5-methyl-6-thioxo-",445.85,1,CN1CN(CC(=O)O)CSC1=S,0,0,0,1
"3-Cyclohexen-1-one, 3,5,5-trimethyl-",337.35,1,CC1=CC(C)(C)CC(=O)C1,0,0,0,0
3-ethyl-3-methylpentane,276,1,C(C)C(CC)(CC)C,0,0,0,0
N-(2-methylphenyl)-1-phenylmethanimine,613.35,1,Cc1ccccc1N=Cc1ccccc1,0,0,0,0
"Urea, N,N-diphenyl-",443.85,1,NC(=O)N(c1ccccc1)c1ccccc1,0,0,0,0
3-(1-methylpyrrol-2-yl)pyridine,397.95,1,Cn1cccc1-c1cccnc1,0,0,0,0
TETRAKIS(DIETHYLAMINO)TIN,312.15,1,CCN(CC)[Sn](N(CC)CC)(N(CC)CC)N(CC)CC,0,1,1,0
"Propanamide, 2-methyl-N-phenyl- (9CI)",458.95,1,CC(C)C(=O)Nc1ccccc1,0,0,0,0
"2,6-dimethylmorpholine",317.15,1,CC1CNCC(O1)C,0,0,0,0
"2-Nitro-alpha,alpha,alpha-trifluorotoluene",368.75,1,O=[N+]([O-])c1ccccc1C(F)(F)F,0,0,0,0
N-chloroaniline,381.15,1,C1=CC=C(C=C1)NCl,0,0,0,0
ACETOXYETHYLMETHYLDICHLOROSILANE,338.15,1,CC(=O)OCC[Si](C)(Cl)Cl,1,1,0,0
"Benzophenone, 2,3,4-trihydroxy- (8CI)",507.05,1,O=C(c1ccccc1)c1ccc(O)c(O)c1O,0,0,0,0
isobutanoicanhydride,340,1,C(C(C)C)(=O)OC(C(C)C)=O,0,0,0,0
"Ethylene glycol, diformate",359.35,1,O=COCCOC=O,0,0,0,0
decylbenzene,380.15,1,CCCCCCCCCCC1=CC=CC=C1,0,0,0,0
"2,4-dichloro-1-ethoxybenzene",354.05,1,CCOc1ccc(Cl)cc1Cl,0,0,0,0
"4-methyl-1,2-dinitrobenzene",480.15,1,CC1=CC(=C(C=C1)[N+](=O)[O-])[N+](=O)[O-],0,0,0,0
"1,3,5-trichloro-2,4,6-trifluorobenzene",375.35,1,Fc1c(Cl)c(F)c(Cl)c(F)c1Cl,0,0,0,0
1-benzyl-4-methylbenzene,393.75,1,Cc1ccc(Cc2ccccc2)cc1,0,0,0,0
methyl (9Z)-hexadec-9-enoate,386,1,CCCCCC/C=C\CCCCCCCC(=O)OC,0,0,0,0
2-[(E)-N-[(E)-3-chloroprop-2-enoxy]-C-ethylcarbonimidoyl]-5-(2-ethylsulfanylpropyl)-3-hydroxycyclohex-2-en-1-one,345.15,1,CCC(=NOCC=CCl)C1=C(CC(CC1=O)CC(C)SCC)O,0,0,0,0
"1,3-Propanediamine, N-(3-aminopropyl)-N-methyl-",375.95,1,CN(CCCN)CCCN,0,0,0,0
2-phenoxypropanoyl chloride,361.45,1,CC(Oc1ccccc1)C(=O)Cl,0,0,0,0
phenylmethoxymethylbenzene,408.15,1,C1=CC=C(C=C1)COCC2=CC=CC=C2,0,0,0,0
"Benzoic acid, 2,4-dinitro-",460.45,1,O=C(O)c1ccc([N+](=O)[O-])cc1[N+](=O)[O-],0,0,0,1
"1,3-Dioxolo(4,5-g)furo(2,3-b)quinoline, 4,9-dimethoxy-",489.15,1,COc1c2ccoc2nc2c(OC)c3c(cc12)OCO3,0,0,0,0
"1-(2,4,5-trimethylphenyl)ethanone",355.35,1,CC(=O)c1cc(C)c(C)cc1C,0,0,0,0
"Ethanol, 2-((4-amino-2-nitrophenyl)amino)-",505.05,1,Nc1ccc(NCCO)c([N+](=O)[O-])c1,0,0,0,0
morpholin-4-amine,331.15,1,NN1CCOCC1,0,0,0,0
"Isocyanic acid, p-xylylene ester",393.05,1,O=C=NCc1ccc(CN=C=O)cc1,0,0,0,1
DIISONONYL PHTHALATE,489,1,CC(C)CCCCCCOC(=O)c1ccccc1C(=O)OCCCCCCC(C)C,0,0,0,0
"Phenol, 2-octyl- (9CI)",438.65,1,CCCCCCCCc1ccccc1O,0,0,0,0
"(1,1'-Biphenyl)-4-ol, 3-amino-",442.25,1,Nc1cc(-c2ccccc2)ccc1O,0,0,0,0
propan-2-yloxybenzene,335.05,1,CC(C)Oc1ccccc1,0,0,0,0
"Pentanoic acid, 5-bromo-",387.55,1,O=C(O)CCCCBr,0,0,0,1
"Phenanthrene, 9-nitro-",480.65,1,O=[N+]([O-])c1cc2ccccc2c2ccccc12,0,0,0,0
"2,3-Hexanedione",301.15,1,CCCC(=O)C(C)=O,0,0,0,0
"Isoflavone, 5,7-dihydroxy-4'-methoxy- (8CI)",471.35,1,COc1ccc(-c2coc3cc(O)cc(O)c3c2=O)cc1,0,0,0,0
methanesulfonate,462.15,1,CS(=O)(=O)[O-],0,0,0,0
propanoyl fluoride,276.35,1,CCC(=O)F,0,0,0,0
"4-methylbenzene-1,3-diol",403.25,1,Cc1ccc(O)cc1O,0,0,0,0
1-(bromomethyl)-3-methylbenzene,355.15,1,Cc1cccc(CBr)c1,0,0,0,0
1-heptanol,343,1,C(CCCCCC)O,0,0,0,0
"2-chloro-1,1-dimethoxyethane",302.039,1,COC(CCl)OC,0,0,0,0
"1,3-diisocyanato-2-methylbenzene",405.15,1,CC1=C(C=CC=C1N=C=O)N=C=O,0,0,0,0
"1,4-Benzenedicarboxylic acid, 2-nitro-, dimethyl ester",433.35,1,COC(=O)c1ccc(C(=O)OC)c([N+](=O)[O-])c1,0,0,0,1
"Benzimidazole, 4,5,6-trichloro-2-(trifluoromethyl)-",451.45,1,FC(F)(F)c1nc2cc(Cl)c(Cl)c(Cl)c2[nH]1,0,0,0,0
ethyl 2-oxocyclopentane-1-carboxylate,350.15,1,CCOC(=O)C1CCCC1=O,0,0,0,0
"1,3-diiodobenzene",418.35,1,Ic1cccc(I)c1,0,0,0,0
"m-Toluidine, alpha,alpha,alpha-trifluoro-",358.15,1,Nc1cccc(C(F)(F)F)c1,0,0,0,0
"2,2,3-trichloro-1,1,1,3,4,4,4-heptafluorobutane",295.95,1,FC(F)(F)C(F)(Cl)C(Cl)(Cl)C(F)(F)F,0,0,0,0
2-Amino-3-hydroxyphenazine,457.75,1,Nc1cc2nc3ccccc3nc2cc1O,0,0,0,0
Pentanoyl chloride,305.95,1,CCCCC(=O)Cl,0,0,0,0
"2-Propanone, 1,1,3-trichloro-1,3,3-trifluoro-",295.25,1,O=C(C(F)(F)Cl)C(F)(Cl)Cl,0,0,0,0
"3,5,9-Undecatrien-2-one, 6,10-dimethyl-",402.15,1,CC(=O)C=CC=C(C)CCC=C(C)C,0,0,0,0
"Acetamide, N-(4-chlorophenyl)-N-hydroxy- (9CI)",422.15,1,CC(=O)N(O)c1ccc(Cl)cc1,0,0,0,0
2-(2-methylprop-2-enoyloxy)ethyl 2-methylprop-2-enoate,374.15,1,CC(=C)C(=O)OCCOC(=O)C(=C)C,0,0,0,0
tribromo(fluoro)methane,289.65,1,FC(Br)(Br)Br,0,0,0,0
"Dibenzothiophene, 5-oxide (8CI)(9CI)",469.35,1,O=S1c2ccccc2-c2ccccc21,0,0,0,0
Bromoethene (9CI),255.95,1,C=CBr,0,0,0,0
o-Methoxyphenyl phenylether,385.15,1,COc1ccccc1Oc1ccccc1,0,0,0,0
3-ethylquinoline,381.15,1,CCc1cnc2ccccc2c1,0,0,0,0
"Chrysene-1,2-quinone",490.35,1,O=C1C=Cc2c(ccc3c2ccc2ccccc23)C1=O,0,0,0,0
"2,5-Pyrrolidinedione",433.15,1,O=C1CCC(=O)N1,0,0,0,0
2-methyl-5-propan-2-ylphenol,373.15,1,CC1=C(C=C(C=C1)C(C)C)O,0,0,0,0
"Acetamide, 2-(2,4-dichlorophenoxy)-",470.05,1,NC(=O)COc1ccc(Cl)cc1Cl,0,0,0,0
2-Amino-4'-chlorobenzophenone,480.85,1,Nc1ccccc1C(=O)c1ccc(Cl)cc1,0,0,0,0
3-methylisoquinoline,379.85,1,Cc1cc2ccccc2cn1,0,0,0,0
"4,7-dimethoxy-5-prop-2-enyl-1,3-benzodioxole",390.35,1,C=CCc1cc(OC)c2c(c1OC)OCO2,0,0,0,0
"Quinoline, 7-methyl-",383.15,1,Cc1ccc2cccnc2c1,0,0,0,0
1-phenylethenylbenzene,386.15,1,C=C(c1ccccc1)c1ccccc1,0,0,0,0
"1,3,5-tri(propan-2-yl)benzene",359.85,1,CC(C)c1cc(C(C)C)cc(C(C)C)c1,0,0,0,0
"Ethanesulfonyl fluoride, 2-chloro-",308.85,1,O=S(=O)(F)CCCl,0,0,0,0
"Cyclohexaneacetic acid, alpha-ethyl-1-hydroxy-",443.25,1,CCC(C(=O)O)C1(O)CCCCC1,0,0,0,1
2-Dodecanone,354.35,1,CCCCCCCCCCC(C)=O,0,0,0,0
2-dodecylphenol,436.15,1,CCCCCCCCCCCCC1=CC=CC=C1O,0,0,0,0
"1,1,2-trichloroethane",305,1,ClCC(Cl)Cl,0,0,0,0
"1,2,5-trimethylpyrrole",325.35,1,Cc1ccc(C)n1C,0,0,0,0
1H-pyrrole-2-carbaldehyde,379.85,1,O=Cc1ccc[nH]1,0,0,0,0
"2-Propenoic acid, hexyl ester",331.45,1,C=CC(=O)OCCCCCC,0,0,0,1
"Benzothiazole, 2,5-dimethyl-",383.15,1,Cc1ccc2sc(C)nc2c1,0,0,0,0
"tris(2,4-dimethylphenyl) phosphate",505.15,1,CC1=CC(=C(C=C1)OP(=O)(OC2=C(C=C(C=C2)C)C)OC3=C(C=C(C=C3)C)C)C,0,0,0,0
"Naphthalene, 1-(2,3-epoxypropoxy)-",425.15,1,c1ccc2c(OCC3CO3)cccc2c1,0,0,0,0
"Benzene, 1,2,4-trimethoxy-5-(1-propenyl)-, (E)-",380.85,1,C/C=C/c1cc(OC)c(OC)cc1OC,0,0,0,0
"2H-1-Benzopyran-3-carboxylic acid, 2-oxo-",435.85,1,O=C(O)c1cc2ccccc2oc1=O,0,0,0,1
3-ethylhexane,278,1,C(C)C(CC)CCC,0,0,0,0
3-methylcyclohexan-1-ol,335.15,1,CC1CCCC(C1)O,0,0,0,0
"Carbamic acid, methyl-, m-(2-propynyloxy)phenyl ester",418.75,1,C#CCOc1cccc(OC(=O)NC)c1,0,0,0,1
"Benzenamine, 2-bromo-4,6-dinitro-",469.35,1,Nc1c(Br)cc([N+](=O)[O-])cc1[N+](=O)[O-],0,0,0,0
3-Phenylpropionyl chloride,381.15,1,O=C(Cl)CCc1ccccc1,0,0,0,0
"2,5,8,10-Tetraoxatridec-12-enoic acid, 9-oxo-, 2-propenyl ester",418.45,1,C=CCOC(=O)OCCOCCOC(=O)OCC=C,0,0,0,1
"2,3-dimethyloctane",309,1,CC(C)C(CCCCC)C,0,0,0,0
"Phosphonothioic acid, ethyl-, O-(2,4-dichlorophenyl) O-ethyl ester",434.55,1,CCOP(=S)(CC)Oc1ccc(Cl)cc1Cl,0,0,0,1
"1H-Purine-2,6-dione, 3,7-dihydro-1,3-dimethyl-",501.576,1,Cn1c(=O)c2[nH]cnc2n(C)c1=O,0,0,0,0
"1,2,3-Propanetriol, trinitrate",285.15,1,O=[N+]([O-])OCC(CO[N+](=O)[O-])O[N+](=O)[O-],0,0,0,0
"hexane-2,5-diol",374.15,1,CC(CCC(C)O)O,0,0,0,0
"Propane, 2-chloro-2-nitro-",310.55,1,CC(C)(Cl)[N+](=O)[O-],0,0,0,0
"2-Oxazolidinone, 3-(((5-nitro-2-furanyl)methylene)amino)-",440.65,1,O=C1OCCN1N=Cc1ccc([N+](=O)[O-])o1,0,0,0,0
"beta-Carotene, all-trans-",619.15,1,CC1=C(/C=C/C(C)=C/C=C/C(C)=C/C=C/C=C(C)/C=C/C=C(C)/C=C/C2=C(C)CCCC2(C)C)C(C)(C)CCC1,0,0,0,0
heptadec-1-ene,408,1,CCCCCCCCCCCCCCCC=C,0,0,0,0
TRIPROPYLENE GLYCOL MONOETHYL ETHER,405,1,CCOC(C)COC(C)COC(C)CO,0,0,0,0
"1,3-Dioxolane, 4-methyl-2-(trichloromethyl)-",351.85,1,CC1COC(C(Cl)(Cl)Cl)O1,0,0,0,0
1-bromo-3-fluorobenzene,312.05,1,Fc1cccc(Br)c1,0,0,0,0
2-Bromo-N-phenylacetamide,440.55,1,O=C(CBr)Nc1ccccc1,0,0,0,0
"1,8-dibromooctane",386.15,1,BrCCCCCCCCBr,0,0,0,0
octylamine,333,1,C(CCCCCCC)N,0,0,0,0
"Phosphorothioic acid, O,S-diethyl O-(4-nitrophenyl) ester (9CI)",466.25,1,CCOP(=O)(Oc1ccc([N+](=O)[O-])cc1)SCC,0,0,0,1
"Benzamide, 2-hydroxy-N-(4-hydroxyphenyl)- (9CI)",439.05,1,O=C(Nc1ccc(O)cc1)c1ccccc1O,0,0,0,0
"3-Pentanol, 3-ethynyl-",310.95,1,C#CC(O)(CC)CC,0,0,0,0
"2-Propanol, 1,1'-oxybis-",410.95,1,CC(O)COCC(C)O,0,0,0,0
3-methylbutan-2-one,279.15,1,CC(C)C(=O)C,0,0,0,0
"1,1-dichlorocyclohexane",339.15,1,ClC1(Cl)CCCCC1,0,0,0,0
1-butanol,307,1,C(CCC)O,0,0,0,0
"7-Octen-2-ol, 2-methyl-6-methylene-",357.95,1,C=CC(=C)CCCC(C)(C)O,0,0,0,0
"2,3-Phenazinediamine, 7-chloro-",544.45,1,Nc1cc2nc3ccc(Cl)cc3nc2cc1N,0,0,0,0
ethyl cyanoformate,297.55,1,CCOC(=O)C#N,0,0,0,0
4-hydroxy-3-methoxybenzaldehyde,426.15,1,COC1=C(C=CC(=C1)C=O)O,0,0,0,0
"1,3-Dioxolane-4-methanol, 2-phenyl-",426.45,1,OCC1COC(c2ccccc2)O1,0,0,0,0
"1,6-diisocyanatohexane",413.15,1,C(CCCN=C=O)CCN=C=O,0,0,0,0
"Quinoline, 8-fluoro-",371.15,1,Fc1cccc2cccnc12,0,0,0,0
"Benzoyl chloride, 2-methyl-",349.15,1,Cc1ccccc1C(=O)Cl,0,0,0,0
"2,4(1H,3H)-Pyrimidinedione, 5-fluoro-",469.65,1,O=c1[nH]cc(F)c(=O)[nH]1,0,0,0,0
"1,3,5-trifluoro-2-nitrobenzene",354.45,1,O=[N+]([O-])c1c(F)cc(F)cc1F,0,0,0,0
"1,4-Naphthalenedione, 2-methyl-",386.95,1,CC1=CC(=O)c2ccccc2C1=O,0,0,0,0
"Benzaldehyde, oxime, (Z)-",382.05,1,O/N=C\c1ccccc1,0,0,0,0
"3,5-Pyrazolidinedione, 1,2-diphenyl-4-(2-(phenylthio)ethyl)-",552.35,1,O=C1C(CCSc2ccccc2)C(=O)N(c2ccccc2)N1c1ccccc1,0,0,0,0
"Phenol, 2,4-dinitro-",415.95,1,O=[N+]([O-])c1ccc(O)c([N+](=O)[O-])c1,0,0,0,0
"4,5-Dichloro-2,3-dihydro-2-phenylpyridazin-3-one",441.45,1,O=c1c(Cl)c(Cl)cnn1-c1ccccc1,0,0,0,0
"1,4-Naphthalenedione, 2-amino-3-chloro- (9CI)",414.55,1,NC1=C(Cl)C(=O)c2ccccc2C1=O,0,0,0,0
"Butanenitrile, 3-methyl-",301.45,1,CC(C)CC#N,0,0,0,0
1-propan-2-ylsulfanylpropane,296.15,1,CCCSC(C)C,0,0,0,0
"2,4-Hexadien-1-ol",345.35,1,CC=CC=CCO,0,0,0,0
"1,5-diisocyanatonaphthalene",428.15,1,C1=CC2=C(C=CC=C2N=C=O)C(=C1)N=C=O,0,0,0,0
1-nitrobutane,320,1,[N+](=O)([O-])CCCC,0,0,0,0
2-(1-Naphthyl)acetamide,481.35,1,NC(=O)Cc1cccc2ccccc12,0,0,0,0
"1,4-dichloro-2,5-dimethoxybenzene",434.15,1,COC1=CC(=C(C=C1Cl)OC)Cl,0,0,0,0
n-HEPTACOSANE,475,1,CCCCCCCCCCCCCCCCCCCCCCCCCCC,0,0,0,0
"Benzenamine, N,N,4-trimethyl-",357.35,1,Cc1ccc(N(C)C)cc1,0,0,0,0
"2-Propenamide, N,N'-methylenebis-",488.15,1,C=CC(=O)NCNC(=O)C=C,0,0,0,0
"2-chloro-1,4-dimethylbenzene",330.35,1,Cc1ccc(C)c(Cl)c1,0,0,0,0
Methyl 1-naphthyl ether,375.45,1,COc1cccc2ccccc12,0,0,0,0
AMINOMETHYLTRIMETHYLSILANE,282.15,1,C[Si](C)(C)CN,1,1,0,0
"Benzenemethanol, alpha-ethyl-alpha-methyl-",363.75,1,CCC(C)(O)c1ccccc1,0,0,0,0
"Benzene, pentafluoro-",287.05,1,Fc1cc(F)c(F)c(F)c1F,0,0,0,0
propanedinitrile,403.15,1,C(C#N)C#N,0,0,0,0
"1,1-dichloro-1-nitroethane",349.15,1,CC([N+](=O)[O-])(Cl)Cl,0,0,0,0
"2-Propanol, 1-(2-(2-methoxy-1-methylethoxy)-1-methylethoxy)-",390.75,1,COCC(C)OCC(C)OCC(C)O,0,0,0,0
"Diazene, diphenyl-, 1-oxide",430.15,1,[O-][N+](=Nc1ccccc1)c1ccccc1,0,0,0,0
1-iodo-3-methylbenzene,356,1,IC1=CC(=CC=C1)C,0,0,0,0
"Phosphonic acid, ethyl-, ethyl methyl ester",353.15,1,CCOP(=O)(CC)OC,0,0,0,1
"Benzophenone, 2,2',4,4'-tetrahydroxy-",562.35,1,O=C(c1ccc(O)cc1O)c1ccc(O)cc1O,0,0,0,0
"2,3,4,5,6-pentafluorobenzonitrile",302.15,1,N#Cc1c(F)c(F)c(F)c(F)c1F,0,0,0,0
trichloromethanesulfonyl chloride,336.85,1,O=S(=O)(Cl)C(Cl)(Cl)Cl,0,0,0,0
"1,2-Acenaphthylenedione",423.35,1,O=c1c(=O)c2cccc3cccc1c32,0,0,0,0
"Ethanamine, 2-chloro-N,N-bis(2-chloroethyl)-",321.45,1,ClCCN(CCCl)CCCl,0,0,0,0
"2,4-dichloro-1-methylbenzene",472.15,1,CC1=C(C=C(C=C1)Cl)Cl,0,0,0,0
ethyl 4-methylbenzenesulfonate,431.15,1,CCOS(=O)(=O)C1=CC=C(C=C1)C,0,0,0,0