compound,flashpoint,pure substance,smiles,is_silicon,is_metallic,is_tin,is_acid
"4-methoxy-1,2-dimethylbenzene",348.75,1,COc1ccc(C)c(C)c1,0,0,0,0
methyl 2-bromoacetate,335.95,1,COC(=O)CBr,0,0,0,0
3-methylcyclopentan-1-ol,328.15,1,CC1CCC(O)C1,0,0,0,0
"3,5-Dibromo-4-hydroxybenzaldehyde",392.25,1,O=Cc1cc(Br)c(O)c(Br)c1,0,0,0,0
3-ethyl-2-methylpentane,276,1,C(C)C(C(C)C)CC,0,0,0,0
"Pregn-4-ene-3,20-dione, 17-hydroxy-6alpha-methyl-, acetate (8CI)",486.35,1,CC(=O)O.CC(=O)[C@@]1(O)CC[C@H]2[C@@H]3C[C@H](C)C4=CC(=O)CC[C@]4(C)[C@H]3CC[C@@]21C,0,0,0,0
"Acetamide, 2-phenoxy-",474.05,1,NC(=O)COc1ccccc1,0,0,0,0
prop-1-ynylbenzene,335.372,1,CC#Cc1ccccc1,0,0,0,0
"1,2-dichloropentane",315.55,1,CCCC(Cl)CCl,0,0,0,0
trichloro(dichloromethyl)silane,353.05,1,ClC(Cl)[Si](Cl)(Cl)Cl,1,1,0,0
"Acetic acid, (4-chlorophenoxy)-, 2-(dimethylamino)ethyl ester (9CI)",436.15,1,CN(C)CCOC(=O)COc1ccc(Cl)cc1,0,0,0,1
"1,2,3,5-tetramethylbenzene",336,1,CC1=C(C(=CC(=C1)C)C)C,0,0,0,0
3-Benzylpyridine,391.75,1,c1ccc(Cc2cccnc2)cc1,0,0,0,0
"9,12-Octadecadienoic acid, (9E,12E)-",546.15,1,CCCCC/C=C/C/C=C/CCCCCCCC(=O)O,0,0,0,1
dimethylcarbonate,287,1,COC(OC)=O,0,0,0,0
"2-Heptanone, oxime",613.85,1,CCCCCC(C)=NO,0,0,0,0
"2,4,5-trimethylphenol",375.45,1,Cc1cc(C)c(O)cc1C,0,0,0,0
ethyl (2E)-oct-4-enoate,352,1,CCC/C=C/CCC(=O)OCC,0,0,0,0
"Cyclopentanone, 2-(3-methyl-2-buten-1-yl)-",353.65,1,CC(C)=CCC1CCCC1=O,0,0,0,0
"1,4-Benzenediamine, N-(1,3-dimethylbutyl)-N'-phenyl-",477.15,1,CC(C)CC(C)Nc1ccc(Nc2ccccc2)cc1,0,0,0,0
1-chloro-3-(chloromethyl)benzene,371.15,1,ClCc1cccc(Cl)c1,0,0,0,0
"5-methyl-1,2,3,4-tetrahydronaphthalene",367.35,1,Cc1cccc2c1CCCC2,0,0,0,0
4-phenylbut-3-enoic acid,488.95,1,O=C(O)CC=Cc1ccccc1,0,0,0,1
"Butanamide, N,N-diethyl-3-oxo-",367.15,1,CCN(CC)C(=O)CC(C)=O,0,0,0,0
"Ethanol, 2,2'-thiobis-, diacetate",400.35,1,CC(=O)O.CC(=O)O.OCCSCCO,0,0,0,0
1-ethyl-2-phenylbenzene,410.05,1,CCc1ccccc1-c1ccccc1,0,0,0,0
[(E)-prop-1-enyl]benzene,325.15,1,CC=CC1=CC=CC=C1,0,0,0,0
"2-Hexen-1-ol, (2E)-",327.15,1,CCC/C=C/CO,0,0,0,0
Cyanamide,274.35,1,N#CN,0,0,0,0
"N,N-dipropylacetamide",351.35,1,CCCN(CCC)C(C)=O,0,0,0,0
3-propylphenol,381.95,1,CCCc1cccc(O)c1,0,0,0,0
"Pyridazine, 3,6-dichloro-",421.05,1,Clc1ccc(Cl)nn1,0,0,0,0
N-cyclohexylaniline,408.65,1,c1ccc(NC2CCCCC2)cc1,0,0,0,0
2-chloro-1-methyl-4-nitrobenzene,382.25,1,Cc1ccc([N+](=O)[O-])cc1Cl,0,0,0,0
"2,5-Cyclohexadiene-1,4-dione, 2-methyl-",338.05,1,CC1=CC(=O)C=CC1=O,0,0,0,0
isochromen-1-one,376.65,1,O=c1occc2ccccc12,0,0,0,0
1-n-PENTYLNAPHTHALENE,413,1,CCCCCc1cccc2ccccc12,0,0,0,0
"Ethanone, 2-bromo-1-(4-bromophenyl)-",387.25,1,O=C(CBr)c1ccc(Br)cc1,0,0,0,0
"1H-Benzimidazol-5-amine, 2-(4-aminophenyl)-",590.75,1,Nc1ccc(-c2nc3cc(N)ccc3[nH]2)cc1,0,0,0,0
"1,2,4-trimethyl-5-propan-2-ylbenzene",355.55,1,Cc1cc(C)c(C(C)C)cc1C,0,0,0,0
"2-(3,4-Dimethoxyphenyl)-4,5-diphenyl-1H-imidazole",468.65,1,COc1ccc(-c2nc(-c3ccccc3)c(-c3ccccc3)[nH]2)cc1OC,0,0,0,0
"1,1,1-trifluoropentane-2,4-dione",299.25,1,CC(=O)CC(=O)C(F)(F)F,0,0,0,0
[acetyloxy(phenyl)methyl] acetate,378.85,1,CC(=O)OC(OC(C)=O)c1ccccc1,0,0,0,0
2-bromo-4-methylaniline,375.05,1,Cc1ccc(N)c(Br)c1,0,0,0,0
1-cyclohexylpropylcyclohexane,388.35,1,CCC(C1CCCCC1)C1CCCCC1,0,0,0,0
"3,4-dihydro-2H-pyran",255.15,1,C1CC=COC1,0,0,0,0
"3-Cyclohexen-1-ol, 4-methyl-1-(1-methylethyl)-",355.15,1,CC1=CCC(O)(C(C)C)CC1,0,0,0,0
"5-Hexen-2-one, 5-methyl-",311.85,1,C=C(C)CCC(C)=O,0,0,0,0
"3-(aminomethyl)-3,5,5-trimethylcyclohexan-1-ol",375.35,1,CC1(C)CC(O)CC(C)(CN)C1,0,0,0,0
1-(2-butoxyethoxy)butane,358.15,1,CCCCOCCOCCCC,0,0,0,0
"Methane, chloro(methylthio)- (9CI)",290.35,1,CSCCl,0,0,0,0
fluorobenzene,258,1,FC1=CC=CC=C1,0,0,0,0
"Phenol, 4-methyl-2,6-dinitro-",390.85,1,Cc1cc([N+](=O)[O-])c(O)c([N+](=O)[O-])c1,0,0,0,0
1-cyclopentyl-N-methylpropan-2-amine,318.65,1,CNC(C)CC1CCCC1,0,0,0,0
ethyl 4-methylpentanoate,319.85,1,CCOC(=O)CCC(C)C,0,0,0,0
"Acetamide, N-(5-hydroxy-9H-fluoren-2-yl)-",553.05,1,CC(=O)Nc1ccc2c(c1)Cc1cccc(O)c1-2,0,0,0,0
"10-Undecenoic acid, butyl ester",401.15,1,C=CCCCCCCCCC(=O)OCCCC,0,0,0,1
o-toluidine,358,1,NC=1C(=CC=CC1)C,0,0,0,0
"Acetophenone, 2-chloro-4'-hydroxy- (6CI,7CI)",430.85,1,O=C(CCl)c1ccc(O)cc1,0,0,0,0
"Benzenemethanol, 4-(1-methylethyl)-",379.15,1,CC(C)c1ccc(CO)cc1,0,0,0,0
benzylacetate,363,1,C(C1=CC=CC=C1)CC(=O)[O-],0,0,0,0
"4-diethoxyphosphinothioyloxy-N,N-diethyl-6-methylpyrimidin-2-amine",386.15,1,CCN(CC)C1=NC(=CC(=N1)OP(=S)(OCC)OCC)C,0,0,0,0
"Decane-1,2-diol",386.15,1,CCCCCCCCC(O)CO,0,0,0,0
"Pyridine, 2-chloro-3,5-dinitro-",421.05,1,O=[N+]([O-])c1cnc(Cl)c([N+](=O)[O-])c1,0,0,0,0
7H-Benz(de)anthracen-7-one,469.25,1,O=C1c2ccccc2-c2cccc3cccc1c23,0,0,0,0
1-ethylpyrrolidine,274.75,1,CCN1CCCC1,0,0,0,0
"2-Propynoic acid, 3-phenyl-, ethyl ester (9CI)",398.05,1,CCOC(=O)C#Cc1ccccc1,0,0,0,1
"4-Amino-1,2-naphthoquinone",433.15,1,NC1=CC(=O)C(=O)c2ccccc21,0,0,0,0
"3,3,5,5-tetramethylcyclohexanone",346,1,CC1(CC(CC(C1)(C)C)=O)C,0,0,0,0
"(1R,2S)-1,2-dichlorocyclohexane",339.25,1,Cl[C@H]1CCCC[C@H]1Cl,0,0,0,0
"4H-Dibenzo(de,g)quinolin-2-ol, 5,6,6a,7-tetrahydro-1-methoxy-6-methyl-",499.95,1,COc1c(O)cc2c3c1-c1ccccc1CC3N(C)CC2,0,0,0,0
"2-Butanone, 3-hydroxy-",322.85,1,CC(=O)C(C)O,0,0,0,0
"1,5-Naphthalenediol, 2,6-dibromo-",467.35,1,Oc1c(Br)ccc2c(O)c(Br)ccc12,0,0,0,0
"2,5-dimethyl-1,3-oxazole",303.15,1,Cc1cnc(C)o1,0,0,0,0
3-bromopropylbenzene,374.85,1,BrCCCc1ccccc1,0,0,0,0
"1H-Pyrazolo(3,4-d)pyrimidine, 4-amino-",517.55,1,Nc1ncnc2[nH]ncc12,0,0,0,0
"Benzoxazole, 2-amino-5-fluoro-",398.05,1,Nc1nc2cc(F)ccc2o1,0,0,0,0
2-methylbut-1-ene,226,1,CCC(=C)C,0,0,0,0
"Benzoic acid, 3-methyl-2-nitro-",426.508,1,Cc1cccc(C(=O)O)c1[N+](=O)[O-],0,0,0,1
3-chlorobenzenethiol,363.15,1,Sc1cccc(Cl)c1,0,0,0,0
2-methyl-3-phenylbutan-2-ol,353.15,1,CC(c1ccccc1)C(C)(C)O,0,0,0,0
3-oxo-N-phenylbutanamide,436.15,1,CC(=O)CC(=O)NC1=CC=CC=C1,0,0,0,0
aniline,343,1,NC1=CC=CC=C1,0,0,0,0
"Piperazine, 1-phenyl-",411.45,1,c1ccc(N2CCNCC2)cc1,0,0,0,0
1-cyclopropylethanol,303.75,1,CC(O)C1CC1,0,0,0,0
prop-2-ene-1-thiol,291.15,1,C=CCS,0,0,0,0
"3,7-dimethylocta-1,6-dien-3-yl acetate",473.45,1,C=CC(C)(CCC=C(C)C)OC(C)=O,0,0,0,0
2-[(E)-pent-3-enyl]pyridine,355.95,1,C/C=C/CCc1ccccn1,0,0,0,0
"1,3-dichloro-5-(3,5-dichlorophenyl)benzene",414.15,1,C1=C(C=C(C=C1Cl)Cl)C2=CC(=CC(=C2)Cl)Cl,0,0,0,0
nonanenitrile,355,1,C(CCCCCCCC)#N,0,0,0,0
"Thiocyanic acid, methylene ester",399.45,1,N#CSCSC#N,0,0,0,1
"Benzenamine, 5-chloro-2-nitro- (9CI)",422.55,1,Nc1cc(Cl)ccc1[N+](=O)[O-],0,0,0,0
"Benzenesulfonamide, 4-amino-N-(5-methyl-3-isoxazolyl)-",518.55,1,Cc1cc(NS(=O)(=O)c2ccc(N)cc2)no1,0,0,0,0
"Benzoyl chloride, 2-fluoro-",355.15,1,O=C(Cl)c1ccccc1F,0,0,0,0
"1,4-dichlorobutane",313.15,1,C(CCCl)CCl,0,0,0,0
"9H-Purin-6-amine, 9-(phenylmethyl)- (9CI)",522.15,1,Nc1ncnc2c1ncn2Cc1ccccc1,0,0,0,0
2-cyclohexen-1-one,329,1,C1(C=CCCC1)=O,0,0,0,0
"6H-Purine-6-thione, 1,7-dihydro- (9CI)",528.55,1,S=c1[nH]cnc2nc[nH]c12,0,0,0,0
"Heptane, 3,3'-(oxybis(methylene))bis-",380.65,1,CCCCC(CC)COCC(CC)CCCC,0,0,0,0
"Fluorene-9,9-dipropionic acid",583.95,1,O=C(O)CCC1(CCC(=O)O)c2ccccc2-c2ccccc21,0,0,0,1
"ethyl 2,2-diethyl-3-oxobutanoate",354.55,1,CCOC(=O)C(CC)(CC)C(C)=O,0,0,0,0
"Hydrazine, 1,2-diformyl- (8CI)",354.75,1,O=CNNC=O,0,0,0,0
pentadecan-2-one,357.05,1,CCCCCCCCCCCCCC(C)=O,0,0,0,0
"3-Pyridinecarbonitrile, 1,2-dihydro-4,6-dimethyl-2-oxo-",429.95,1,Cc1cc(C)c(C#N)c(=O)[nH]1,0,0,0,0
"Cyclohexanecarbamic acid, N-ethylthio-, S-ethyl ester",410.25,1,CCSC(=O)N(CC)C1CCCCC1,0,0,0,1
propylformate,270,1,C(CC)OC=O,0,0,0,0
henicosylcyclopentane,478.95,1,CCCCCCCCCCCCCCCCCCCCCC1CCCC1,0,0,0,0
"Propionic acid, 2-chloro-, ethyl ester (8CI)",311.15,1,CCOC(=O)C(C)Cl,0,0,0,1
diethylphthalate,433,1,C(C)OC(C=1C(C(=O)OCC)=CC=CC1)=O,0,0,0,0
"Benzoic acid, 2-amino-, 2-methylpropyl ester",421.05,1,CC(C)COC(=O)c1ccccc1N,0,0,0,1
"2-Butenedioyl dichloride, (2E)-",346.15,1,O=C(Cl)/C=C/C(=O)Cl,0,0,0,0
"2,1-Benzisothiazole, 3-(methylamino)-",413.65,1,CNc1snc2ccccc12,0,0,0,0
"(Z)-5,5-dimethylhex-2-ene",281.55,1,C/C=C\CC(C)(C)C,0,0,0,0
"1,6-Octadien-3-ol, 3,7-dimethyl-, propionate (7CI,8CI)",370.15,1,C=CC(C)(CCC=C(C)C)OC(=O)CC,0,0,0,0
"Benzamide, p-chloro- (6CI,7CI,8CI)",402.45,1,NC(=O)c1ccc(Cl)cc1,0,0,0,0
methyl 2-chloro-2-oxoacetate,319.85,1,COC(=O)C(=O)Cl,0,0,0,0
"3-Buten-2-one, 4-phenyl-",338.75,1,CC(=O)C=Cc1ccccc1,0,0,0,0
butylmethacrylate,322,1,C(CCC)OC(C(=C)C)=O,0,0,0,0
propan-2-yl 3-oxobutanoate,342.05,1,CC(=O)CC(=O)OC(C)C,0,0,0,0
"1,4-Benzenedicarbonyl dichloride",416.25,1,O=C(Cl)c1ccc(C(=O)Cl)cc1,0,0,0,0
"Naphtho(2,1,8-def)quinoline",446.15,1,c1cc2ccc3ccnc4ccc(c1)c2c34,0,0,0,0
"Ethanol, 2-(2-propenyloxy)-",328.15,1,C=CCOCCO,0,0,0,0
"2-Heptanol, 2,6-dimethyl-",336.15,1,CC(C)CCCC(C)(C)O,0,0,0,0
"Benzenamine, 4-iodo-",389.45,1,Nc1ccc(I)cc1,0,0,0,0
"Benzenamine, N,N-diethyl-4-nitroso-",402.55,1,CCN(CC)c1ccc(N=O)cc1,0,0,0,0
1-(furan-3-yl)-4-methylpentan-1-one,369.95,1,CC(C)CCC(=O)c1ccoc1,0,0,0,0
N-ethylaniline,358.15,1,CCNC1=CC=CC=C1,0,0,0,0
"pentane-2,3-dione",292.15,1,CCC(=O)C(=O)C,0,0,0,0
"Ethanol, 2,2'-((4-(methylamino)-3-nitrophenyl)imino)bis-",532.85,1,CNc1ccc(N(CCO)CCO)cc1[N+](=O)[O-],0,0,0,0
3-ethyl-1-pentene,256,1,C(C)C(C=C)CC,0,0,0,0
"Benzoic acid, isobutyl ester (6CI,7CI,8CI)",374.55,1,CC(C)COC(=O)c1ccccc1,0,0,0,1
"3,5-dimethyloctane",314,1,CC(CC)CC(CCC)C,0,0,0,0
p-Phenylbenzyl alcohol,428.05,1,OCc1ccc(-c2ccccc2)cc1,0,0,0,0
propanal,246,1,C(CC)=O,0,0,0,0
"3-Buten-2-one, 4-(3,4-(methylenedioxy)phenyl)- (6CI,7CI,8CI)",420.75,1,CC(=O)C=Cc1ccc2c(c1)OCO2,0,0,0,0
"Benzene, 1,4-dinitroso-",376.65,1,O=Nc1ccc(N=O)cc1,0,0,0,0
"Acetic acid, chloro-, isopropyl ester (8CI)",329.15,1,CC(C)OC(=O)CCl,0,0,0,1
1-methyl-3-propylcyclohexane,320.85,1,CCCC1CCCC(C)C1,0,0,0,0
"Carbamic acid, alpha-methylphenethyl ester",445.55,1,CC(Cc1ccccc1)OC(N)=O,0,0,0,1
"Benzene, (methylsulfonyl)- (9CI)",444.55,1,CS(=O)(=O)c1ccccc1,0,0,0,0
"Carbamoyl chloride, diethyl-",348.15,1,CCN(CC)C(=O)Cl,0,0,0,0
"2,5-dimethylhexane-2,5-diol",399.85,1,CC(C)(O)CCC(C)(C)O,0,0,0,0
ethyl 2-acetylhexanoate,362.25,1,CCCCC(C(C)=O)C(=O)OCC,0,0,0,0
"Benzonitrile, 3-amino- (9CI)",385.15,1,N#Cc1cccc(N)c1,0,0,0,0
"1,3,2-Dioxathiolane, 2,2-dioxide",366.65,1,O=S1(=O)OCCO1,0,0,0,0
2-norbornene,259,1,C12C=CC(CC1)C2,0,0,0,0
"Pyridine, 2,3-dichloro-",360.65,1,Clc1cccnc1Cl,0,0,0,0
"1,2,3,4-tetrafluorobenzene",293.75,1,Fc1ccc(F)c(F)c1F,0,0,0,0
"Benzenesulfonyl chloride, 2-methyl-5-nitro- (9CI)",450.25,1,Cc1ccc([N+](=O)[O-])cc1S(=O)(=O)Cl,0,0,0,0
ethyl pyridine-4-carboxylate,362.15,1,CCOC(=O)c1ccncc1,0,0,0,0
"Anthranilic acid, N-(alpha,alpha,alpha-trifluoro-m-tolyl)-",453.05,1,O=C(O)c1ccccc1Nc1cccc(C(F)(F)F)c1,0,0,0,1
"Benzene, 1,1'-(1,2-ethanediylbis(thio))bis-",457.75,1,c1ccc(SCCSc2ccccc2)cc1,0,0,0,0
p-AMINOPHENYLTRIMETHOXYSILANE,453.15,1,CO[Si](OC)(OC)c1ccc(N)cc1,1,1,0,0
1-methyl-3-(propan-2-yl)benzene,323,1,Cc1cccc(c1)C(C)C,0,0,0,0
"1,4-Benzenediamine, N-(1-methylethyl)-N'-phenyl-",504.05,1,CC(C)Nc1ccc(Nc2ccccc2)cc1,0,0,0,0
"Benzenamine, 5-chloro-2-methyl-",433.15,1,Cc1ccc(Cl)cc1N,0,0,0,0
[(E)-but-1-enyl]benzene,336.75,1,CC/C=C/c1ccccc1,0,0,0,0
"Dibenz(b,f)(1,4)oxazepine",398.15,1,C1=Nc2ccccc2Oc2ccccc21,0,0,0,0
"1H-Purine, 6-((1-methyl-4-nitro-1H-imidazol-5-yl)thio)-",641.65,1,Cn1cnc([N+](=O)[O-])c1Sc1[nH]cnc2ncnc1-2,0,0,0,0
"1,3,5-Triazine-2,4,6(1H,3H,5H)-trione, 1,3,5-tri-2-propenyl-",426.55,1,C=CCn1c(=O)n(CC=C)c(=O)n(CC=C)c1=O,0,0,0,0
3-phenylpropylbenzene,402.35,1,c1ccc(CCCc2ccccc2)cc1,0,0,0,0
1-methyl-4-nitrobenzene,379.15,1,CC1=CC=C(C=C1)[N+](=O)[O-],0,0,0,0
"2,5-dimethylfuran",272.15,1,CC1=CC=C(O1)C,0,0,0,0
"m-Xylene, alpha,alpha'-dibromo- (8CI)",411.25,1,BrCc1cccc(CBr)c1,0,0,0,0
"Phenol, 2-heptyl- (9CI)",426.15,1,CCCCCCCc1ccccc1O,0,0,0,0
"1,4-Naphthalenedione, 2,3-dichloro-",400.65,1,O=C1C(Cl)=C(Cl)C(=O)c2ccccc21,0,0,0,0
"Acetic acid, (4-chlorophenoxy)-, 2-(1-methylethyl)hydrazide (9CI)",430.45,1,CC(C)NNC(=O)COc1ccc(Cl)cc1,0,0,0,1
"2,6-Dimethoxytoluene",369.85,1,COc1cccc(OC)c1C,0,0,0,0
"Benzene, 1-(ethenyloxy)-4-nitro-",397.95,1,C=COc1ccc([N+](=O)[O-])cc1,0,0,0,0
2-(2-acetyloxyethoxy)ethyl acetate,383.15,1,CC(=O)OCCOCCOC(C)=O,0,0,0,0
(4-bromophenyl)urea,402.85,1,NC(=O)Nc1ccc(Br)cc1,0,0,0,0
"Phosphonic acid, ethenyl-, bis(2-chloroethyl) ester",438.65,1,C=CP(=O)(OCCCl)OCCCl,0,0,0,1
"(2R,3R)-2,3-dichlorobutane",291.45,1,C[C@@H](Cl)[C@@H](C)Cl,0,0,0,0
"InChI=1S/C9H12.H2O2/c1-8(2)9-6-4-3-5-7-9;1-2/h3-8H,1-2H3;1-2H/p-1",352.15,1,CC(C)C1=CC=CC=C1.O[O-],0,0,0,0
"Benzo(b)thiophene 1,1-dioxide",517.15,1,O=S1(=O)C=Cc2ccccc21,0,0,0,0
"Bicyclo(2.2.1)heptan-2-ol, 1,7,7-trimethyl-, acetate, (1R,2R,4R)-rel-",360.95,1,CC(=O)O[C@@H]1C[C@H]2CC[C@]1(C)C2(C)C,0,0,0,0
4-(3-phenylpropyl)pyridine,386.15,1,c1ccc(CCCc2ccncc2)cc1,0,0,0,0
"Quinoline, 6-chloro-",386.15,1,Clc1ccc2ncccc2c1,0,0,0,0
"Benzoic acid, p-acetamido- (8CI)",492.85,1,CC(=O)Nc1ccc(C(=O)O)cc1,0,0,0,1
"Benzene, 1-fluoro-2-methyl-",284.55,1,Cc1ccccc1F,0,0,0,0
"Phosphorothioic acid, O,O-diethyl O-(4-(methylsulfinyl)phenyl) ester",471.35,1,CCOP(=S)(OCC)Oc1ccc(S(C)=O)cc1,0,0,0,1
"4-Hydroxy-3,5-dinitrobiphenyl",420.05,1,O=[N+]([O-])c1cc(-c2ccccc2)cc([N+](=O)[O-])c1O,0,0,0,0
"1-Butanone, 1-(2,4,5-trihydroxyphenyl)-",488.55,1,CCCC(=O)c1cc(O)c(O)cc1O,0,0,0,0
Oxacycloheptadecan-2-one,422.75,1,O=C1CCCCCCCCCCCCCCCO1,0,0,0,0
"Acetamide, N-(1-hydroxy-9H-fluoren-2-yl)- (9CI)",513.45,1,CC(=O)Nc1ccc2c(c1O)Cc1ccccc1-2,0,0,0,0
"1,2,3,4,5,6,7,8-octafluoronaphthalene",347.45,1,Fc1c(F)c(F)c2c(F)c(F)c(F)c(F)c2c1F,0,0,0,0
"Ethane, 1,1'-thiobis(2-chloro-",362.55,1,ClCCSCCCl,0,0,0,0
2-aminobenzonitrile,395.35,1,N#Cc1ccccc1N,0,0,0,0
cyclohexyloxycyclohexane,367.05,1,C1CCC(OC2CCCCC2)CC1,0,0,0,0
"1,2-diphenylguanidine",471.15,1,C1=CC=C(C=C1)NC(=NC2=CC=CC=C2)N,0,0,0,0
"Benzenamine, 2-propyl- (9CI)",370.95,1,CCCc1ccccc1N,0,0,0,0
"2,5-dimethylthiophene",297.05,1,Cc1ccc(C)s1,0,0,0,0
"Benzenemethanol, alpha,alpha-dimethyl-4-(1-methylethyl)- (9CI)",378.65,1,CC(C)c1ccc(C(C)(C)O)cc1,0,0,0,0
"2,3-dimethylquinoline",382.85,1,Cc1cc2ccccc2nc1C,0,0,0,0
diethoxymethane,268,1,C(C)OCOCC,0,0,0,0
"1,2,3,4,5,6,7,8-octahydrophenanthrene",405.35,1,c1cc2c(c3c1CCCC3)CCCC2,0,0,0,0
1-chloro-4-nitro-2-(trifluoromethyl)benzene,371.15,1,O=[N+]([O-])c1ccc(Cl)c(C(F)(F)F)c1,0,0,0,0
2-isopropylphenol,362,1,C(C)(C)C1=C(C=CC=C1)O,0,0,0,0
"3,3-dimethyl-2-methylidenebicyclo[2.2.1]heptane",309,1,C=C1C2CCC(C2)C1(C)C,0,0,0,0
"Carbamothioic acid, diphenyl-, S-(2-(diethylamino)ethyl) ester",494.15,1,CCN(CC)CCSC(=O)N(c1ccccc1)c1ccccc1,0,0,0,1
TETRAPHENYLTIN,504.15,1,c1ccc([Sn](c2ccccc2)(c2ccccc2)c2ccccc2)cc1,0,1,1,0
"3-chlorofuran-2,5-dione",368.65,1,O=C1C=C(Cl)C(=O)O1,0,0,0,0
"thiolane 1,1-dioxide",439.15,1,C1CCS(=O)(=O)C1,0,0,0,0
"1-Hexyn-3-ol, 3,5-dimethyl-",317.55,1,C#CC(C)(O)CC(C)C,0,0,0,0
"5-Chloro-1,3-dimethyl-1H-pyrazole",335.85,1,Cc1cc(Cl)n(C)n1,0,0,0,0
"7H-Furo(3,2-g)(1)benzopyran-7-one, 9-((3-methyl-2-butenyl)oxy)-",498.05,1,CC(C)=CCOc1c2occc2cc2ccc(=O)oc12,0,0,0,0
"Ethane, 1,2-dibromo-",285.75,1,BrCCBr,0,0,0,0
"Estra-1,3,5(10)-trien-17-one, 3-hydroxy-",462.85,1,C[C@]12CC[C@@H]3c4ccc(O)cc4CC[C@H]3[C@@H]1CCC2=O,0,0,0,0
"Benzene, 1-chloro-4-(((4-chlorophenyl)methyl)thio)-",441.55,1,Clc1ccc(CSc2ccc(Cl)cc2)cc1,0,0,0,0
tris(2-nonylphenyl) phosphite,480.15,1,CCCCCCCCCC1=CC=CC=C1OP(OC2=CC=CC=C2CCCCCCCCC)OC3=CC=CC=C3CCCCCCCCC,0,0,0,0
2-METHYL OCTANAL,328,1,CCCCCCC(C)C=O,0,0,0,0
"1,3,5,7-Tetraazabicyclo(3.3.1)nonane, 3,7-dinitroso-",504.25,1,O=NN1CN2CN(C1)CN(N=O)C2,0,0,0,0
methyl 4-chlorobutanoate,332.55,1,COC(=O)CCCCl,0,0,0,0
thianthrene,443.95,1,c1ccc2c(c1)Sc1ccccc1S2,0,0,0,0
methyl (3E)-hex-3-enoate,319,1,CC/C=C/CC(=O)OC,0,0,0,0
"1-trans-3,5-trimethylcyclohexane",292,1,C[C@H]1C[C@H](C)C[C@H](C)C1,0,0,0,0
"Cyclohexanol, 5-methyl-2-(1-methylethyl)-, acetate (8CI)",365.35,1,CC(=O)OC1CC(C)CCC1C(C)C,0,0,0,0
4-methylbenzenesulfonamide,475.15,1,CC1=CC=C(C=C1)S(=O)(=O)N,0,0,0,0
"Ether, 2-ethoxyethyl 2-methoxyethyl",326.95,1,CCOCCOCCOC,0,0,0,0
"2,6-Octadien-1-ol, 3,7-dimethyl-, benzoate, (2E)-",426.55,1,CC(C)=CCC/C(C)=C/COC(=O)c1ccccc1,0,0,0,0
4-aminophenol,468.15,1,C1=CC(=CC=C1N)O,0,0,0,0
"Quinoline, 6-ethoxy-1,2-dihydro-2,2,4-trimethyl-",410.95,1,CCOc1ccc2c(c1)C(C)=CC(C)(C)N2,0,0,0,0
(E)-hex-4-en-3-one,307.55,1,C/C=C/C(=O)CC,0,0,0,0
"1-Butanol, 4-ethoxy-",330.05,1,CCOCCCCO,0,0,0,0
"Benzene, 1-fluoro-3-nitro- (8CI)(9CI)",349.85,1,O=[N+]([O-])c1cccc(F)c1,0,0,0,0
"1,4-dichloro-2,5-dimethylbenzene",359.25,1,Cc1cc(Cl)c(C)cc1Cl,0,0,0,0
"Phosphorothioic acid, S-tert-butyl O,O-diethyl ester",383.35,1,CCOP(=O)(OCC)SC(C)(C)C,0,0,0,1
"Benzeneacetic acid, alpha-cyano-, ethyl ester",410.65,1,CCOC(=O)C(C#N)c1ccccc1,0,0,0,1
cyclooctanol,361,1,C1(CCCCCCC1)O,0,0,0,0
"1-Hexanone, 1-phenyl-",378.65,1,CCCCCC(=O)c1ccccc1,0,0,0,0
"1-Cyclohexene-1-methanol, 4-(1-methylethenyl)-",372.75,1,C=C(C)C1CC=C(CO)CC1,0,0,0,0
cyclopent-2-en-1-one,315.15,1,O=C1C=CCC1,0,0,0,0
"Benzothiazole, 2-methyl-",375.15,1,Cc1nc2ccccc2s1,0,0,0,0
1-bromo-2-ethylbenzene,352,1,BrC1=C(C=CC=C1)CC,0,0,0,0
1-fluoronaphthalene,338.75,1,Fc1cccc2ccccc12,0,0,0,0
"p-Cresol, alpha,alpha,alpha-trifluoro-2,6-dinitro-",364.45,1,O=[N+]([O-])c1cc(C(F)(F)F)cc([N+](=O)[O-])c1O,0,0,0,0
1-tert-BUTOXY-2-[2-(HYDROXY)PROPOXY]PROPANE,400,1,CC(O)COC(C)COC(C)(C)C,0,0,0,0
"1,4-Phthalazinedione, 2,3-dihydro-, dihydrazone (9CI)",619.05,1,NN=c1[nH][nH]c(=NN)c2ccccc12,0,0,0,0
"Benzamide, N,N-diethyl-4-methyl-",413.95,1,CCN(CC)C(=O)c1ccc(C)cc1,0,0,0,0
2-benzylpiperidine,389.25,1,c1ccc(CC2CCCCN2)cc1,0,0,0,0
"4-Thiazolidinone, 2-thioxo-",358.85,1,O=C1CSC(=S)N1,0,0,0,0
ALLYLAMINOTRIMETHYLSILANE,283.15,1,C=CCN[Si](C)(C)C,1,1,0,0
"Melamine, N2,N4,N6-trichloro- (8CI)",478.55,1,ClNc1nc(NCl)nc(NCl)n1,0,0,0,0
"Hydroperoxide, alpha,alpha-dimethylbenzyl-",329.25,1,CC(C)(OO)c1ccccc1,0,0,0,0
2-octyloxirane,351.15,1,CCCCCCCCC1CO1,0,0,0,0
"Quinoline, 7-fluoro-",371.15,1,Fc1ccc2cccnc2c1,0,0,0,0
"3,5,6-Trichloro-2,2,3,4,4,5,6,6-octafluorohexanoic acid",359.55,1,O=C(O)C(F)(F)C(F)(Cl)C(F)(F)C(F)(Cl)C(F)(F)Cl,0,0,0,1
"1,2-dichloro-1,1,2-trifluoro-2-iodoethane",289.05,1,FC(F)(Cl)C(F)(Cl)I,0,0,0,0
8-Ethoxyquinoline,381.15,1,CCOc1cccc2cccnc12,0,0,0,0
"1,2,3,4,6,9-Tetrathiadiazecine-5,10-dithione",483.95,1,S=C1N=CC=NC(=S)SSSS1,0,0,0,0
4-methoxybenzenethiol,362.95,1,COc1ccc(S)cc1,0,0,0,0
"Ether, butyl p-nitrosophenyl",396.15,1,CCCCOc1ccc(N=O)cc1,0,0,0,0
"Thiophene, 2,3,4,5-tetrachloro-",386.15,1,Clc1sc(Cl)c(Cl)c1Cl,0,0,0,0
chloromethyl carbonochloridate,298.65,1,O=C(Cl)OCCl,0,0,0,0
phenylmethanamine,349.15,1,C1=CC=C(C=C1)CN,0,0,0,0
"Hexanoic acid, 2-bromo-, ethyl ester",364.55,1,CCCCC(Br)C(=O)OCC,0,0,0,1
"3,7-dimethyloct-1-ene",316.95,1,C=CC(C)CCCC(C)C,0,0,0,0
2-[2-[2-[2-[2-[2-[2-[2-[2-(4-nonylphenoxy)ethoxy]ethoxy]ethoxy]ethoxy]ethoxy]ethoxy]ethoxy]ethoxy]ethanol,470.15,1,CCCCCCCCCC1=CC=C(C=C1)OCCOCCOCCOCCOCCOCCOCCOCCOCCO,0,0,0,0
methyl 2-oxopropanoate,312.15,1,COC(=O)C(C)=O,0,0,0,0
cyclobutanol,294.15,1,OC1CCC1,0,0,0,0
"Benzoic acid, 2-amino-",415.55,1,Nc1ccccc1C(=O)O,0,0,0,1
4-Pyridineethanol,374.65,1,OCCc1ccncc1,0,0,0,0
butan-2-yl nitrate,314.05,1,CCC(C)O[N+](=O)[O-],0,0,0,0
"2-Propanone, 1,3-diphenyl-",422.55,1,O=C(Cc1ccccc1)Cc1ccccc1,0,0,0,0
11H-benzo[a]fluorene,458.55,1,c1ccc2c(c1)Cc1c-2ccc2ccccc12,0,0,0,0
"1-Butanol, 4-phenyl- (8CI)",387.45,1,OCCCCc1ccccc1,0,0,0,0
1-(2-hydroxy-5-methylphenyl)ethanone,372.95,1,CC(=O)c1cc(C)ccc1O,0,0,0,0
"4H-1-Benzopyran-4-one, 7-methoxy-2,3-dimethyl-8-(4-morpholinylmethyl)-",494.95,1,COc1ccc2c(=O)c(C)c(C)oc2c1CN1CCOCC1,0,0,0,0
"Hexanoic acid, 2-ethyl-, 2-ethylhexyl ester",410.25,1,CCCCC(CC)COC(=O)C(CC)CCCC,0,0,0,1
"3-ethoxy-N,N-diethylaniline",352.25,1,CCOc1cccc(N(CC)CC)c1,0,0,0,0
1-iodoheptane,352,1,ICCCCCCC,0,0,0,0
"Benzeneethanol, alpha-methyl-alpha-phenyl-",404.05,1,CC(O)(Cc1ccccc1)c1ccccc1,0,0,0,0
1-Bromo-4-(chloromethyl)benzene,384.85,1,ClCc1ccc(Br)cc1,0,0,0,0
cis-2-heptene,267,1,C\C=C/CCCC,0,0,0,0
1-fluoro-2-methylbenzene,286.15,1,CC1=CC=CC=C1F,0,0,0,0
"Benzyl alcohol, o-methyl- (8CI)",377.55,1,Cc1ccccc1CO,0,0,0,0
"1,2,3-trimethylindole",399.05,1,Cc1c(C)n(C)c2ccccc12,0,0,0,0
"1-Naphthaleneacetamide, alpha-(2-(dimethylamino)ethyl)-alpha-isopropyl",518.85,1,CN(C)CCC(C)(C)NC(=O)Cc1cccc2ccccc12,0,0,0,0
"(1,1'-Biphenyl)-4,4'-diamine, 3,3'-dinitro- (9CI)",527.75,1,Nc1ccc(-c2ccc(N)c([N+](=O)[O-])c2)cc1[N+](=O)[O-],0,0,0,0