compound,flashpoint,pure substance,smiles,is_silicon,is_metallic,is_tin,is_acid
"2,4,4-trimethylcyclohexan-1-one",331.65,1,CC1CC(C)(C)CCC1=O,0,0,0,0
"Bicyclo(3.1.1)hept-2-ene-2-ethanol, 6,6-dimethyl-",372.05,1,CC1(C)C2CC=C(CCO)C1C2,0,0,0,0
"2,3-dichloro-1-propanol",366,1,ClC(CO)CCl,0,0,0,0
"Pyren-8-ol, 1-nitro-",491.45,1,O=[N+]([O-])c1ccc2ccc3ccc(O)c4ccc1c2c34,0,0,0,0
"2,3,4-trimethylpent-2-ene",285.95,1,CC(C)=C(C)C(C)C,0,0,0,0
"1,3-Propanediamine, N,N-dimethyl-N'-(1-nitro-9-acridinyl)- (9CI)",542.65,1,CN(C)CCCNc1c2ccccc2nc2cccc([N+](=O)[O-])c12,0,0,0,0
"Propanedinitrile, ((2-chlorophenyl)methylene)-",421.15,1,N#CC(C#N)=Cc1ccccc1Cl,0,0,0,0
"Acetic acid, (2,4-dichlorophenoxy)-, 2-ethylhexyl ester",410.15,1,CCCCC(CC)COC(=O)COc1ccc(Cl)cc1Cl,0,0,0,1
4-Fluorophenetole,335.45,1,CCOc1ccc(F)cc1,0,0,0,0
"Benzenamine, 2-methyl-6-nitro- (9CI)",409.25,1,Cc1cccc([N+](=O)[O-])c1N,0,0,0,0
"Benzoic acid, 1-methylethyl ester",366.15,1,CC(C)OC(=O)c1ccccc1,0,0,0,1
undecylbenzene,417,1,C(CCCCCCCCCC)C1=CC=CC=C1,0,0,0,0
1-octylsulfanyloctane,445.35,1,CCCCCCCCSCCCCCCCC,0,0,0,0
"Pyrophosphoric acid, tetraethyl ester",398.75,1,CCOP(=O)(OCC)OP(=O)(OCC)OCC,0,0,0,1
propanal,264.15,1,CCC=O,0,0,0,0
Iodobenzene,347.15,1,Ic1ccccc1,0,0,0,0
"2-methoxy-1,4-dimethylbenzene",339.25,1,COc1cc(C)ccc1C,0,0,0,0
propyl benzoate,371.45,1,CCCOC(=O)c1ccccc1,0,0,0,0
"Benzene, fluoro-",258.15,1,Fc1ccccc1,0,0,0,0
N-methylprop-2-en-1-amine,244.85,1,C=CCNC,0,0,0,0
"Anthra(2,1-d:6,5-d')bisthiazole-6,12-dione, 2,8-diphenyl-",666.75,1,O=C1c2ccc3nc(-c4ccccc4)sc3c2C(=O)c2ccc3nc(-c4ccccc4)sc3c21,0,0,0,0
"Xanthen-9-one, 8-hydroxy-1,3,5-trimethoxy-",466.75,1,COc1cc(OC)c2c(=O)c3c(O)ccc(OC)c3oc2c1,0,0,0,0
CHRYSENE,510,1,c1ccc2c(c1)ccc1c3ccccc3ccc21,0,0,0,0
"4-methyl-1,3-pentadiene",255,1,C=CC=C(C)C,0,0,0,0
Methylsalicylate,369.15,1,COc1ccccc1C(=O)[O-],0,0,0,0
"Cyclohexaneacetic acid, 2-propenyl ester",371.95,1,C=CCOC(=O)CC1CCCCC1,0,0,0,1
Ethenylacetate,265,1,C=CCC(=O)[O-],0,0,0,0
methyl benzoate,356.15,1,COC(=O)C1=CC=CC=C1,0,0,0,0
"Hydrazine, 1-(1,5-dimethylhexyl)-",373.35,1,CC(C)CCCC(C)NN,0,0,0,0
"4-bromo-1,2-dimethoxybenzene",382.15,1,COc1ccc(Br)cc1OC,0,0,0,0
m-ethyltoluene,311,1,C(C)C=1C=C(C)C=CC1,0,0,0,0
"4H-Pyran-4-one, 2-ethyl-3-hydroxy-",397.95,1,CCc1occc(=O)c1O,0,0,0,0
n-Ethyl aniline,358.15,1,CCNc1ccccc1,0,0,0,0
3chloropropylMethylDichloroSilane,359.15,1,C[Si](Cl)(Cl)CCCCl,1,1,0,0
"1,2-Bis(2-methoxyethoxy)ethane",386.15,1,COCCOCCOCCOC,0,0,0,0
"1H-Isoindole-5-sulfonamide, 6-chloro-2-cyclohexyl-2,3-dihydro-3-oxo-",576.05,1,NS(=O)(=O)c1cc2c(cc1Cl)CN(C1CCCCC1)C2=O,0,0,0,0
"Propionitrile, 2,3-dichloro- (6CI,7CI,8CI)",357.05,1,N#CC(Cl)CCl,0,0,0,0
dipropyl carbonate,328.15,1,CCCOC(=O)OCCC,0,0,0,0
2-butenenitrile,290,1,C(C=CC)#N,0,0,0,0
1-ethylsulfanyl-4-methylbenzene,359.15,1,CCSc1ccc(C)cc1,0,0,0,0
"m-Dioxane-4-ethanol, 4-methyl-",374.65,1,CC1(CCO)CCOCO1,0,0,0,0
1-n-NONYLNAPHTHALENE,449,1,CCCCCCCCCc1cccc2ccccc12,0,0,0,0
"1,3,5-trimethylpyrazole",313.15,1,Cc1cc(C)n(C)n1,0,0,0,0
"1,3,5-Trioxane, 2,4,6-trimethyl-",312.35,1,CC1OC(C)OC(C)O1,0,0,0,0
"Benzimidazole, 1-methyl-6-nitro- (8CI)",443.85,1,Cn1cnc2ccc([N+](=O)[O-])cc21,0,0,0,0
"1-Propene, 1-ethoxy- (9CI)",254.25,1,CC=COCC,0,0,0,0
10H-Phenothiazine,451.35,1,c1ccc2c(c1)Nc1ccccc1S2,0,0,0,0
benzenethiol,323,1,Sc1ccccc1,0,0,0,0
"1-bromo-2,3-dichlorobenzene",381.85,1,Clc1cccc(Br)c1Cl,0,0,0,0
isohexane,250.15,1,CCCC(C)C,0,0,0,0
"1,3-Dioxolan-2-one, 4-ethyl-",401.55,1,CCC1COC(=O)O1,0,0,0,0
[fluoro(methyl)phosphoryl]oxycyclohexane,370.45,1,CP(=O)(F)OC1CCCCC1,0,0,0,0
1H-Phenalen-1-one (9CI),431.05,1,O=C1C=Cc2cccc3cccc1c23,0,0,0,0
ISOPENTYL ISOVALERATE,345,1,CC(C)CCOC(=O)CC(C)C,0,0,0,0
1-undecene,327,1,C=CCCCCCCCCC,0,0,0,0
"2,2,4-TRIMETHYL-1,3-PENTANEDIOL",383.1,1,CC(C)C(O)C(C)(C)CO,0,0,0,0
"(1S,5S)-6,6-dimethyl-2-methylidenebicyclo[3.1.1]heptane",304.15,1,CC1(C2CCC(=C)C1C2)C,0,0,0,0
3methacryloxyPropylTrimethoxySilane,365.15,1,C=C(C)C(=O)OCCC[Si](OC)(OC)OC,1,1,0,0
"2,6-Octadienal, 3,7-dimethyl-, (2E)-",374.85,1,CC(C)=CCC/C(C)=C/C=O,0,0,0,0
methylenecyclohexane,267,1,C=C1CCCCC1,0,0,0,0
2-Methylnonane,314,1,CCCCCCCC(C)C,0,0,0,0
3-propoxypropan-1-ol,326.15,1,CCCOCCCO,0,0,0,0
2-(2-aminoethoxy)ethanamine,347.95,1,NCCOCCN,0,0,0,0
"Benzamide, 4-amino-5-bromo-N-(2-(diethylamino)ethyl)-2-methoxy- (9CI)",490.45,1,CCN(CC)CCNC(=O)c1cc(Br)c(N)cc1OC,0,0,0,0
2-methylprop-1-ene,197,1,CC(=C)C,0,0,0,0
isobutyronitrile,281,1,C(C(C)C)#N,0,0,0,0
3-ethylcyclopentanone,319,1,C(C)C1CC(CC1)=O,0,0,0,0
TrimethylFluoroSilane-,238.15,1,C[Si](C)(C)F,1,1,0,0
2-propylpiperidine,321.55,1,CCCC1CCCCN1,0,0,0,0
ethyl 3-oxo-3-phenylpropanoate,386.25,1,CCOC(=O)CC(=O)c1ccccc1,0,0,0,0
"Ketone, methyl 10-(3-(4-methyl-1-piperazinyl)propyl)phenothiazin-2-yl",562.45,1,CC(=O)c1ccc2c(c1)N(CCCN1CCN(C)CC1)c1ccccc1S2,0,0,0,0
"Ethanol, 2,2,2-trichloro-",361.15,1,OCC(Cl)(Cl)Cl,0,0,0,0
1-(2-hydroxybutylamino)butan-2-ol,384.75,1,CCC(O)CNCC(O)CC,0,0,0,0
4-Isobutylmorpholine,322.95,1,CC(C)CN1CCOCC1,0,0,0,0
Hexanoyl chloride,352.15,1,CCCCCC(=O)Cl,0,0,0,0
(3S)-N-methyl-3-naphthalen-1-yloxy-3-thiophen-2-ylpropan-1-amine,282.15,1,CNCCC(C1=CC=CS1)OC2=CC=CC3=CC=CC=C32,0,0,0,0
"m-Xylene, 4-nitro- (8CI)",394.15,1,Cc1ccc([N+](=O)[O-])c(C)c1,0,0,0,0
"1,4-di-tert -butylbenzene",370.1,1,CC(C)(C)c1ccc(C(C)(C)C)cc1,0,0,0,0
"Benzoic acid, 2-(acetyloxy)-, 4-(acetylamino)phenyl ester (9CI)",552.15,1,CC(=O)Nc1ccc(OC(=O)c2ccccc2OC(C)=O)cc1,0,0,0,1
"1H-Indazol-3-amine, 5-(trifluoromethyl)- (9CI)",443.75,1,Nc1n[nH]c2ccc(C(F)(F)F)cc12,0,0,0,0
"Benzene, 1-chloro-2-methyl-3-nitro-",398.15,1,Cc1c(Cl)cccc1[N+](=O)[O-],0,0,0,0
"Phosphorodithioic acid, O,O-diethyl ester",355.95,1,CCOP(=S)([S-])OCC,0,0,0,1
"Cyclohexanone, 5-methyl-2-(1-methylethyl)-, (2R,5S)-rel-",342.15,1,CC(C)[C@H]1CC[C@H](C)CC1=O,0,0,0,0
"N,N,4-trimethylaniline",349.15,1,CC1=CC=C(C=C1)N(C)C,0,0,0,0
"Benzene, 1-fluoro-4-methyl-",285.05,1,Cc1ccc(F)cc1,0,0,0,0
"Benzimidazole, 4,5,6,7-tetrabromo-2-(trifluoromethyl)-",511.95,1,FC(F)(F)c1nc2c(Br)c(Br)c(Br)c(Br)c2[nH]1,0,0,0,0
"9,10-Anthracenedione, 1,8-dihydroxy-3-(hydroxymethyl)- (9CI)",585.05,1,O=C1c2cccc(O)c2C(=O)c2c(O)cc(CO)cc21,0,0,0,0
"1-bromo-2,4,5-trimethylbenzene",386.15,1,Cc1cc(C)c(Br)cc1C,0,0,0,0
"1,2,3,4-Tetrahydronaphthalen-1-one",377.75,1,O=C1CCCc2ccccc21,0,0,0,0
2-Naphthol,426.15,1,Oc1ccc2ccccc2c1,0,0,0,0
"1,2,3,4,5,6-hexachlorobenzene",515.15,1,C1(=C(C(=C(C(=C1Cl)Cl)Cl)Cl)Cl)Cl,0,0,0,0
AllylChloromethylDimethylSilane,300.15,1,C=CC[Si](C)(C)CCl,1,1,0,0
2-naphthalen-2-ylacetonitrile,453.45,1,N#CCc1ccc2ccccc2c1,0,0,0,0
"1,1,1,2,2,3,3,4,4,5,5,6,6-tridecafluoro-6-iodohexane",318.15,1,FC(F)(F)C(F)(F)C(F)(F)C(F)(F)C(F)(F)C(F)(F)I,0,0,0,0
"Benzonitrile, p-amino- (8CI)",400.25,1,N#Cc1ccc(N)cc1,0,0,0,0
2hexene,252,1,CC=CCCC,0,0,0,0
trimethyl(phenoxy)silane,315.906,1,C[Si](C)(C)Oc1ccccc1,1,1,0,0
"2,7-Octadien-1-ol, acetate",360.85,1,C=CCCCC=CCOC(C)=O,0,0,0,0
1-phenylpropylbenzene,396.55,1,CCC(c1ccccc1)c1ccccc1,0,0,0,0
4-propylheptane,308.35,1,CCCC(CCC)CCC,0,0,0,0
ethylbutanoate,293,1,C(C)OC(CCC)=O,0,0,0,0
2-methyl-1-phenylpropan-1-one,352.45,1,CC(C)C(=O)c1ccccc1,0,0,0,0
mesitylene,323,1,Cc1cc(C)cc(C)c1,0,0,0,0
"Bicyclo(2.2.1)heptan-2-one, 1,3,3-trimethyl-, (1S,4R)-",325.95,1,CC1(C)C(=O)[C@@]2(C)CC[C@@H]1C2,0,0,0,0
 (Diisopropylamino)trimethylsilane,301.15,1,CC(C)N(C(C)C)[Si](C)(C)C,1,1,0,0
ETHYLENE GLYCOL DIACETATE,361.1,1,CC(=O)OCCOC(C)=O,0,0,0,0
2-bromopentane,293.75,1,CCCC(C)Br,0,0,0,0
3-Chloro-3-ethylpentane,306.7,1,CCC(Cl)(CC)CC,0,0,0,0
propan-2-yl tetradecanoate,417.25,1,CCCCCCCCCCCCCC(=O)OC(C)C,0,0,0,0
phenyl carbonochloridate,342.15,1,C1=CC=C(C=C1)OC(=O)Cl,0,0,0,0
(4E)-oct-4-ene,281,1,CCC/C=C/CCC,0,0,0,0
"1,2-Benzenedicarboxylic acid, dibutyl ester",450.55,1,CCCCOC(=O)c1ccccc1C(=O)OCCCC,0,0,0,1
2-hydroxypropyl 2-methylprop-2-enoate,360.05,1,C=C(C)C(=O)OCC(C)O,0,0,0,0
1-methoxypropan-2-ol,309.15,1,CC(COC)O,0,0,0,0
"Phenol, 3-(ethylamino)- (9CI)",420.35,1,CCNc1cccc(O)c1,0,0,0,0
4-chlorobenzaldehyde,361.15,1,C1=CC(=CC=C1C=O)Cl,0,0,0,0
"Phenol, 4-fluoro-",347.95,1,Oc1ccc(F)cc1,0,0,0,0
Trimethoxychlorosilane,295.15,1,CO[Si](Cl)(OC)OC,1,1,0,0
"Morphinan-6-one, 4,5alpha-epoxy-3-hydroxy-17-methyl- (8CI)",514.55,1,CN1CC[C@]23c4c5ccc(O)c4O[C@H]2C(=O)CC[C@H]3[C@H]1C5,0,0,0,0
octanenitrile,346,1,CCCCCCCC#N,0,0,0,0
"Phenol, 2,3,4-trichloro-6-methoxy-",403.05,1,COc1cc(Cl)c(Cl)c(Cl)c1O,0,0,0,0
2methyl1propanethiol-,264.15,1,CC(C)CS,0,0,0,0
"2,4,8,10-Tetraoxaspiro(5,5)undecane, 3,9-diethenyl- (9CI)",386.15,1,C=CC1OCC2(CO1)COC(C=C)OC2,0,0,0,0
methylpropylether,253.15,1,CCCOC,0,0,0,0
"9,10-Anthracenedione, 2,6-dihydroxy-",508.45,1,O=C1c2ccc(O)cc2C(=O)c2ccc(O)cc21,0,0,0,0
"3(2H)-Pyridazinone, 5-amino-4-bromo-2-phenyl-",423.75,1,Nc1cnn(-c2ccccc2)c(=O)c1Br,0,0,0,0
ethenol,352.15,1,C=CO,0,0,0,0
"1,1'-Biphenyl, 2,2',4,4'-tetrachloro-",433.45,1,Clc1ccc(-c2ccc(Cl)cc2Cl)c(Cl)c1,0,0,0,0
1-acetyloxyethyl acetate,351.35,1,CC(=O)OC(C)OC(C)=O,0,0,0,0
5-methylcyclooctanone,344,1,CC1CCCC(CCC1)=O,0,0,0,0
"Furan, tetrahydro-2,2,5,5-tetramethyl-",277.05,1,CC1(C)CCC(C)(C)O1,0,0,0,0
"Acetic acid, 2-ethylbutyl ester",325.95,1,CCC(CC)COC(C)=O,0,0,0,1
"Phosphoric acid, diethyl 3-(ethylthio)-1-propenyl ester (9CI)",558.65,1,CCOP(=O)(OC=CCSCC)OCC,0,0,0,1
"2,5norbornadiene",262,1,C1=CC2C=CC1C2,0,0,0,0
"Malonic acid, ethyl-, diethyl ester (8CI)",361.15,1,CCOC(=O)C(CC)C(=O)OCC,0,0,0,1
propylamine,243,1,C(CC)N,0,0,0,0
"1-Propanol, 3-phenyl-, propionate",390.05,1,CCC(=O)OCCCc1ccccc1,0,0,0,0
3-bromobenzonitrile,363.45,1,N#Cc1cccc(Br)c1,0,0,0,0
"1,3-dichlorobenzene",336.15,1,C1=CC(=CC(=C1)Cl)Cl,0,0,0,0
1ethoxy2propanol,315.15,1,CCOCC(C)O,0,0,0,0
1-bromooctane,351,1,CCCCCCCCBr,0,0,0,0
"Undecanoic acid, 11-amino-",429.45,1,NCCCCCCCCCCC(=O)O,0,0,0,1
"2,6-Octadien-1-ol, 3,7-dimethyl-, acetate, (2E)-",372.05,1,CC(=O)OC/C=C(\C)CCC=C(C)C,0,0,0,0
(1-methylheptyl)benzene,373,1,CC(CCCCCC)C1=CC=CC=C1,0,0,0,0
"Phosphoramidothioic acid, O-methyl O-(2,4,5-trichlorophenyl) ester",454.45,1,COP(N)(=S)Oc1cc(Cl)c(Cl)cc1Cl,0,0,0,1
4tertButyl2methylphenol,390.95,1,Cc1cc(C(C)(C)C)ccc1O,0,0,0,0
"2-Cyclohexen-1-one, 3-methyl-6-(1-methylethyl)-",364.05,1,CC1=CC(=O)C(C(C)C)CC1,0,0,0,0
"but-1-ene-1,3-dione",306.15,1,CC(=O)C=C=O,0,0,0,0
2-phenylphenol,397.15,1,C1=CC=C(C=C1)C2=CC=CC=C2O,0,0,0,0
"Acetonitrile, 2,2'-iminobis-",431.05,1,N#CCNCC#N,0,0,0,0
"Piperidine, 4-amino-2,2,6,6-tetramethyl-",345.15,1,CC1(C)CC(N)CC(C)(C)N1,0,0,0,0
"Aniline, N,N-dimethyl-p-(4-methoxyphenylazo)-",475.15,1,COc1ccc(N=Nc2ccc(N(C)C)cc2)cc1,0,0,0,0
Hexylsilane,285.15,1,CCCCCC[SiH3],1,1,0,0
BenzylTrimethylSilane,335.15,1,C[Si](C)(C)Cc1ccccc1,1,1,0,0
"Acetophenone, 2-bromo-4'-phenyl- (8CI)",348.25,1,O=C(CBr)c1ccc(-c2ccccc2)cc1,0,0,0,0
Chloroacetaldehyde,361.15,1,O=CCCl,0,0,0,0
"1,1-dichloroethane",263,1,ClC(C)Cl,0,0,0,0
"Heptanoic acid, 2,2,3,3,4,4,5,5,6,6,7,7-dodecafluoro-",340.75,1,O=C(O)C(F)(F)C(F)(F)C(F)(F)C(F)(F)C(F)(F)C(F)F,0,0,0,1
"Hexanedinitrile, octafluoro- (8CI,9CI)",306.95,1,N#CC(F)(F)C(F)(F)C(F)(F)C(F)(F)C#N,0,0,0,0
"2-Butyne-1,4-diol",408.708,1,OCC#CCO,0,0,0,0
isobutyl propanoate,320,1,CCC(=O)OCC(C)C,0,0,0,0
"2,4-dimethylquinoline",380.75,1,Cc1cc(C)c2ccccc2n1,0,0,0,0
pentan-1-ol,306.15,1,CCCCCO,0,0,0,0
1-ethenoxy-2-methoxyethane,291.15,1,COCCOC=C,0,0,0,0
octanal,324,1,C(CCCCCCC)=O,0,0,0,0
3-ethyl-2-methylheptane,358.05,1,CCCCC(CC)C(C)C,0,0,0,0
"Benzene, 1,2,3,4-tetrachloro-5-methoxy-",390.75,1,COc1cc(Cl)c(Cl)c(Cl)c1Cl,0,0,0,0
propanoyl bromide,325.35,1,CCC(=O)Br,0,0,0,0
"Pyrimidine, 2,4,6-trichloro-",375.65,1,Clc1cc(Cl)nc(Cl)n1,0,0,0,0
"2,2'-Dihydroxybenzophenone",439.95,1,O=C(c1ccccc1O)c1ccccc1O,0,0,0,0
"1,1':4',1''-Terphenyl",480.15,1,c1ccc(-c2ccc(-c3ccccc3)cc2)cc1,0,0,0,0
"7H-Furo(3,2-g)(1)benzopyran-7-one",446.25,1,O=c1ccc2cc3ccoc3cc2o1,0,0,0,0
"N'-[2-(2-aminoethylamino)ethyl]ethane-1,2-diamine",408.15,1,C(CNCCNCCN)N,0,0,0,0
"Acetanilide, 4'-nitro- (8CI)",474.25,1,CC(=O)Nc1ccc([N+](=O)[O-])cc1,0,0,0,0
"2,2,4-Trimethylpentane",261,1,CC(C)CC(C)(C)C,0,0,0,0
methyl hexadecanoate,425.95,1,CCCCCCCCCCCCCCCC(=O)OC,0,0,0,0
2-methylbut-3-en-2-ol,286.15,1,CC(C)(C=C)O,0,0,0,0
"2,6-dimethylpiperidine",284.85,1,CC1CCCC(C)N1,0,0,0,0
"1-Aziridineacetamide, N,N'-1,8-octanediylbis- (9CI)",560.45,1,O=C(CN1CC1)NCCCCCCCCNC(=O)CN1CC1,0,0,0,0
Bromomethyldimethylchlorosilane,314.15,1,C[Si](C)(Cl)CBr,1,1,0,0
"Phosphonic acid, phenyl-, O,O-dimethyl ester",390.45,1,COP(=O)(OC)c1ccccc1,0,0,0,1
1-chloro-4-methyl-2-nitrobenzene,387.05,1,Cc1ccc(Cl)c([N+](=O)[O-])c1,0,0,0,0
2-methylheptane-2-thiol,319.15,1,CCCCCC(C)(C)S,0,0,0,0
furan-2-carbonyl chloride,330.25,1,O=C(Cl)c1ccco1,0,0,0,0
2-butylnaphthalene,405.25,1,CCCCc1ccc2ccccc2c1,0,0,0,0
"Benzoic acid, 3,4-dichloro-, 3-(2-methylpiperidino)propyl ester",486.15,1,CC1CCCCN1CCCOC(=O)c1ccc(Cl)c(Cl)c1,0,0,0,1
4-ethyloctane,314,1,CCCCC(CC)CCC,0,0,0,0
"(1,4'-Bipiperidine)-4'-carboxamide, 1'-(3-cyano-3,3-diphenylpropyl)-",615.45,1,N#CC(CCN1CCC(C(N)=O)(N2CCCCC2)CC1)(c1ccccc1)c1ccccc1,0,0,0,0
"2H-1-Benzopyran-2-one, 7-(diethylamino)-4-methyl-",425.15,1,CCN(CC)c1ccc2c(C)cc(=O)oc2c1,0,0,0,0
2-Fluoro-4-bromo-6-nitrophenol,372.95,1,O=[N+]([O-])c1cc(Br)cc(F)c1O,0,0,0,0
"Aniline, p-((p-nitrophenyl)thio)- (6CI,7CI,8CI)",516.65,1,Nc1ccc(Sc2ccc([N+](=O)[O-])cc2)cc1,0,0,0,0
Dipentylether,330,1,CCCCCOCCCCC,0,0,0,0
ethyl tetradecanoate,386,1,CCCCCCCCCCCCCC(=O)OCC,0,0,0,0
5-NONANONE,333.1,1,CCCCC(=O)CCCC,0,0,0,0
1-bromo-4-chlorobutane,333.15,1,ClCCCCBr,0,0,0,0
1-fluoro-2-methoxybenzene,322.95,1,COc1ccccc1F,0,0,0,0
NONYLPHENOL,411,1,CCCCCCCCCc1ccccc1O,0,0,0,0
"2,3-dimethylbut-1-ene",255.15,1,C=C(C)C(C)C,0,0,0,0
"Oxirane, 2,2'-(1,4-butanediyl)bis- (9CI)",370.95,1,C(CCC1CO1)CC1CO1,0,0,0,0
METHOXYACETONE,293,1,COCC(C)=O,0,0,0,0
"1,2-butanediol",366,1,C(C(CC)O)O,0,0,0,0
(1-methylheptyl)benzene,373.2,1,CCCCCCC(C)c1ccccc1,0,0,0,0
"2,5-Cyclohexadiene-1,4-dione",332.45,1,O=C1C=CC(=O)C=C1,0,0,0,0
6-methoxyquinoline,375.85,1,COc1ccc2ncccc2c1,0,0,0,0
2-bromo-2-nitropropane,334.25,1,CC(C)(Br)[N+](=O)[O-],0,0,0,0
"3,4-dihydro-2H-naphthalen-1-one",402.15,1,C1CC2=CC=CC=C2C(=O)C1,0,0,0,0
METHYL t-BUTYL SULFIDE,270.1,1,CSC(C)(C)C,0,0,0,0
2-fluoroaniline,333.15,1,C1=CC=C(C(=C1)N)F,0,0,0,0
bromo(iodo)methane,306.95,1,BrCI,0,0,0,0
tert-butylcyclohexane,315,1,CC(C)(C)C1CCCCC1,0,0,0,0
N-(2-Hydroxyethyl)piperazine,375.05,1,OCCN1CCNCC1,0,0,0,0
"Hexanoic acid, 6-chloro-",380.75,1,O=C(O)CCCCCCl,0,0,0,1
"9,10-Anthracenedione, 1,4,5,8-tetrahydroxy-2-methyl- (9CI)",591.65,1,Cc1cc(O)c2c(c1O)C(=O)c1c(O)ccc(O)c1C2=O,0,0,0,0
"Propanoic acid, 2-methyl-, 2-phenylethyl ester",378.95,1,CC(C)C(=O)OCCc1ccccc1,0,0,0,1
cyclopentane,236,1,C1CCCC1,0,0,0,0
"Morpholine, 4-acetyl-",395.15,1,CC(=O)N1CCOCC1,0,0,0,0
2-pentanethiol,282,1,CCCC(C)S,0,0,0,0
ethyl isopentanoate,298,1,CCOC(=O)CC(C)C,0,0,0,0
pentylamine,277,1,C(CCCC)N,0,0,0,0
"Phosphoric acid, bis(2-ethylhexyl) ester",464.85,1,CCCCC(CC)COP(=O)([O-])OCC(CC)CCCC,0,0,0,1
"N,1-diphenylmethanimine",400.324,1,C(=Nc1ccccc1)c1ccccc1,0,0,0,0
"Barbituric acid, 1,3-diethyl-2-thio- (8CI)",392.35,1,CCN1C(=O)CC(=O)N(CC)C1=S,0,0,0,1
PhenylSilane,281.15,1,[SiH3]c1ccccc1,1,1,0,0
Butanoyl chloride,294.85,1,CCCC(=O)Cl,0,0,0,0
2-(phenoxymethyl)oxirane,388.15,1,c1ccc(OCC2CO2)cc1,0,0,0,0
n-hexane,252,1,CCCCCC,0,0,0,0
"2-Pyridinamine, N,N-dimethyl- (9CI)",347.15,1,CN(C)c1ccccn1,0,0,0,0
(2-methyl-5-propan-2-ylphenyl) acetate,367.75,1,CC(=O)Oc1cc(C(C)C)ccc1C,0,0,0,0
"1,3-diethylurea",394.25,1,CCNC(=O)NCC,0,0,0,0
"Acrylic acid, 2-methoxyethyl ester (8CI)",333.15,1,C=CC(=O)OCCOC,0,0,0,1
"1,3-dichloro-5-nitrobenzene",413.15,1,C1=C(C=C(C=C1Cl)Cl)[N+](=O)[O-],0,0,0,0
N-Methyl-N-trimethylsilyltrifluoroacetamide,298,1,CN(C(C(F)(F)F)=O)[Si](C)(C)C,1,1,0,0
2-dodecanol,386,1,CC(CCCCCCCCCC)O,0,0,0,0
"Ethanol, 2-(phenylamino)-",421.15,1,OCCNc1ccccc1,0,0,0,0
"Phosphorodithioic acid, O,O-diethyl S-(tetrahydro-3-thienyl) ester",437.35,1,CCOP(=S)(OCC)SC1CCSC1,0,0,0,1
2-phenylethanamine,363.75,1,NCCc1ccccc1,0,0,0,0
"2,4,4-trimethylheptane",311.65,1,CCCC(C)(C)CC(C)C,0,0,0,0
5-undecyne,339,1,CCCCC#CCCCCC,0,0,0,0
1-thiophen-2-ylethanone,355.55,1,CC(=O)c1cccs1,0,0,0,0
2-ethylbutan-1-ol,330.15,1,CCC(CC)CO,0,0,0,0
ZIRCONIUM TETRAKIS(ETHYLMETHYLAMIDE),283.15,1,CC[N-]C.CC[N-]C.CC[N-]C.CC[N-]C.[Zr+4],0,1,0,0
Chrysen-6-ylamine,560.05,1,Nc1cc2c3ccccc3ccc2c2ccccc12,0,0,0,0
1-hydroperoxyethylbenzene,377.85,1,CC(OO)c1ccccc1,0,0,0,0
"Octadecanoic acid, 2-(2-hydroxyethoxy)ethyl ester",420.45,1,CCCCCCCCCCCCCCCCCC(=O)OCCOCCO,0,0,0,1
4H-Cyclopenta(def)phenanthren-4-one,459.05,1,O=c1c2cccc3ccc4cccc1c4c32,0,0,0,0
"Thiazole, 4,5-dihydro-2-(2-propenylthio)- (9CI)",369.05,1,C=CCSC1=NCCS1,0,0,0,0
"2,3-dimethyloctane",309,1,CCCCCC(C)C(C)C,0,0,0,0
"9,10-Anthracenedione, 1,8-dihydroxy-3-methoxy-6-methyl- (9CI)",488.55,1,COc1cc(O)c2c(c1)C(=O)c1cc(C)cc(O)c1C2=O,0,0,0,0
"3-Heptene, 2,2,4,6,6-pentamethyl-",320.25,1,CC(=CC(C)(C)C)CC(C)(C)C,0,0,0,0
1-tert-butylnaphthalene,394.75,1,CC(C)(C)c1cccc2ccccc12,0,0,0,0
"1-chloro-3,5-dimethoxybenzene",365.85,1,COc1cc(Cl)cc(OC)c1,0,0,0,0
"1,5-Dihydro-4H-pyrazolo(3,4-d)pyrimidin-4-one (9CI)",402.85,1,O=c1[nH]cnc2[nH]ncc12,0,0,0,0
2-bromobenzonitrile,386.85,1,N#Cc1ccccc1Br,0,0,0,0
"1H-Benzimidazole, 2-(trifluoromethyl)- (9CI)",385.85,1,FC(F)(F)c1nc2ccccc2[nH]1,0,0,0,0
"Quinoline, 2-chloro-",414.35,1,Clc1ccc2ccccc2n1,0,0,0,0
"Phenol, 2,5-dichloro-",373.15,1,Oc1cc(Cl)ccc1Cl,0,0,0,0
"Benzeneacetamide, alpha-hydroxy-alpha-phenyl- (9CI)",489.75,1,NC(=O)C(O)(c1ccccc1)c1ccccc1,0,0,0,0
"Formic acid, 2-phenylethyl ester",392.25,1,O=COCCc1ccccc1,0,0,0,1
"1-Octanone, 1-phenyl-",389.85,1,CCCCCCCC(=O)c1ccccc1,0,0,0,0
"Benzenamine, 4-fluoro-3-nitro-",364.15,1,Nc1ccc(F)c([N+](=O)[O-])c1,0,0,0,0
"Undecanoic acid, methyl ester",382.55,1,CCCCCCCCCCC(=O)OC,0,0,0,1
7-methylquinoline,383.15,1,CC1=CC2=C(C=CC=N2)C=C1,0,0,0,0
gammaValerolactone,354,1,CC1CCC(=O)O1,0,0,0,0
"Butanoic acid, cyclohexyl ester",351.15,1,CCCC(=O)OC1CCCCC1,0,0,0,1
"Phosphorodithioic acid, O,O-diethyl S-(ethylthio)methyl ester",405.95,1,CCOP(=S)(OCC)SCSCC,0,0,0,1
"Urea, 3-(p-chlorophenyl)-1-methyl-1-(1-methyl-2-propynyl)-",465.75,1,C#CC(C)N(C)C(=O)Nc1ccc(Cl)cc1,0,0,0,0
2-sulfanylacetate,403.15,1,C(C(=O)[O-])S,0,0,0,0
"3,6,9,12,15,18,21,24-Octaoxahexacosane-1,26-diol",533.15,1,OCCOCCOCCOCCOCCOCCOCCOCCOCCO,0,0,0,0
2-methylfuran,247,1,CC=1OC=CC1,0,0,0,0
"2,2,4,4-tetramethylhexane",304,1,CCC(C)(C)CC(C)(C)C,0,0,0,0
cyclohexene,261.15,1,C1CCC=CC1,0,0,0,0
tert-butylsulfanylmethylsulfanyl-diethoxy-sulfanylidene-λ5-phosphane,361.15,1,CCOP(=S)(OCC)SCSC(C)(C)C,0,0,0,0
EthoxymethylBenzene,332.15,1,CCOCc1ccccc1,0,0,0,0
oxepan-2-one,400.15,1,C1CCC(=O)OCC1,0,0,0,0
2-Chloro-2-methyloctane,333.1,1,CCCCCCC(C)(C)Cl,0,0,0,0
"Benzoic acid, 5-amino-2-hydroxy-",471.25,1,Nc1ccc(O)c(C(=O)O)c1,0,0,0,1
"2H-Azepin-2-one, hexahydro-1-methyl- (8CI)(9CI)",376.45,1,CN1CCCCCC1=O,0,0,0,0
ETHYLCYCLOHEXANE,295.1,1,CCC1CCCCC1,0,0,0,0
"Propylamine, 1-ethyl- (8CI)",275.35,1,CCC(N)CC,0,0,0,0
"1-Propanamine, 3,3'-(1,2-ethanediylbis(oxy))bis-",394.65,1,NCCCOCCOCCCN,0,0,0,0
Phenyl vinyl sulphide,318.75,1,C=CSc1ccccc1,0,0,0,0
3-METHYLBUTYRALDEHYDE,268,1,CC(C)CC=O,0,0,0,0
1-ethenyl-3-methylbenzene,333.15,1,CC1=CC=CC(=C1)C=C,0,0,0,0
"Naphthalene, 1,2-dihydro-",343.5,1,C1=Cc2ccccc2CC1,0,0,0,0
"2,2'-Dinitrobenzidine",529.05,1,Nc1ccc(-c2ccc(N)cc2[N+](=O)[O-])c([N+](=O)[O-])c1,0,0,0,0
"Hexadecanoic acid, octadecyl ester",556.75,1,CCCCCCCCCCCCCCCCCCOC(=O)CCCCCCCCCCCCCCC,0,0,0,1
2phenylethanol,375.15,1,OCCc1ccccc1,0,0,0,0
1chloro2methylBenzene,324.15,1,Cc1ccccc1Cl,0,0,0,0
oxiran-2-ylmethanol,345.15,1,C1C(O1)CO,0,0,0,0
4-(4-amino-3-methoxyphenyl)-2-methoxyaniline,479.15,1,COC1=C(C=CC(=C1)C2=CC(=C(C=C2)N)OC)N,0,0,0,0
chloroethene,194.15,1,C=CCl,0,0,0,0
3-METHYLNONANE,311,1,CCCCCCC(C)CC,0,0,0,0
3-chloro-1-propanol,346,1,ClCCCO,0,0,0,0
"Phenol, 2-(1,1-dimethylethyl)-4-methoxy-",378.75,1,COc1ccc(O)c(C(C)(C)C)c1,0,0,0,0
furan-2-ylmethanamine,319.85,1,NCc1ccco1,0,0,0,0
ETHYLENE GLYCOL,383.1,1,OCCO,0,0,0,0
"Glycine, N-(4-nitrobenzoyl)-",548.15,1,O=C(O)CNC(=O)c1ccc([N+](=O)[O-])cc1,0,0,0,0
BUTYRIC ANHYDRIDE,355,1,CCCC(=O)OC(=O)CCC,0,0,0,0
"1,3-Isobenzofurandione, 5-nitro-",500.65,1,O=C1OC(=O)c2cc([N+](=O)[O-])ccc21,0,0,0,0
"N,N-diethylacetamide",350.15,1,CCN(CC)C(=O)C,0,0,0,0