compound,flashpoint,pure substance,smiles,is_silicon,is_metallic,is_tin,is_acid
"Phosphorothioic acid, O,O-dimethyl O-(2,4,5-trichlorophenyl) ester",435.45,1,COP(=S)(OC)Oc1cc(Cl)c(Cl)cc1Cl,0,0,0,1
"Propanamide, 2-hydroxy-N-(2-hydroxyethyl)-",456.95,1,CC(O)C(=O)NCCO,0,0,0,0
3-Nitro-o-cresol,394.95,1,Cc1c(O)cccc1[N+](=O)[O-],0,0,0,0
benzonitrile,343,1,C(C1=CC=CC=C1)#N,0,0,0,0
di-sec-butylsulfide,312,1,C(C)(CC)SC(C)CC,0,0,0,0
"Benzaldehyde, m-chloro- (8CI)",358.55,1,O=Cc1cccc(Cl)c1,0,0,0,0
"Benzene, 1,4-difluoro-2-nitro-",363.15,1,O=[N+]([O-])c1cc(F)ccc1F,0,0,0,0
2-(diethoxymethyl)furan,337.15,1,CCOC(OCC)c1ccco1,0,0,0,0
naphthalene-1-thiol,407.35,1,Sc1cccc2ccccc12,0,0,0,0
"cis-1,2-dimethylcyclohexane",284,1,C[C@@H]1CCCC[C@@H]1C,0,0,0,0
DiethylFumarate,364,1,CC/C(C(=O)[O-])=C(/CC)C(=O)[O-],0,0,0,0
"2-Propenamide, 2-methyl-",354.85,1,C=C(C)C(N)=O,0,0,0,0
"2,2-dimethylpropanoyl chloride",282.05,1,CC(C)(C)C(=O)Cl,0,0,0,0
cyclohexyl 2-methylpropanoate,348.05,1,CC(C)C(=O)OC1CCCCC1,0,0,0,0
1-chloro-3-methylbenzene,325.15,1,CC1=CC(=CC=C1)Cl,0,0,0,0
"Benzoic acid, 2,3-dichloro-",412.55,1,O=C(O)c1cccc(Cl)c1Cl,0,0,0,1
"Benzene, 1,2-methylenedioxy-",328.15,1,c1ccc2c(c1)OCO2,0,0,0,0
allylphenylether,336,1,C(C=C)OC1=CC=CC=C1,0,0,0,0
"1,9-dichlorononane",371.15,1,ClCCCCCCCCCCl,0,0,0,0
N-(2-AMINOETHYL)-3-AMINOPROPYLTRIETHOXYSILANE,421.15,1,CCO[Si](CCCNCCN)(OCC)OCC,1,1,0,0
benzenethiol,324,1,C1(=CC=CC=C1)S,0,0,0,0
butylethylether,268,1,C(CCC)OCC,0,0,0,0
benzylmethylsulfide,346,1,C(C1=CC=CC=C1)SC,0,0,0,0
2-nonanone,341,1,CC(CCCCCCC)=O,0,0,0,0
"s-Triazine-2,4(1H,3H)-dione (8CI)",574.05,1,O=c1nc[nH]c(=O)[nH]1,0,0,0,0
"2,5-hexanedione",351,1,CC(CCC(C)=O)=O,0,0,0,0
"1,3-dibromopropane",239.15,1,C(CBr)CBr,0,0,0,0
"(3-hydroxy-2,2,4-trimethylpentyl) 2-methylpropanoate",393.15,1,CC(C)C(C(C)(C)COC(=O)C(C)C)O,0,0,0,0
[(E)-2-chloroethenyl]-dimethylsilicon,269.15,1,C[Si](C)/C=C/Cl,1,1,0,0
"2-methylbutane-2,3-diol",343.35,1,CC(O)C(C)(C)O,0,0,0,0
2-[bis(2-hydroxyethyl)amino]ethanol,458.15,1,C(CO)N(CCO)CCO,0,0,0,0
2-ethyl-5-methyl-1H-imidazole,410.95,1,CCc1ncc(C)[nH]1,0,0,0,0
"Urea, 3-(p-(p-chlorophenoxy)phenyl)-1,1-dimethyl-",504.75,1,CN(C)C(=O)Nc1ccc(Oc2ccc(Cl)cc2)cc1,0,0,0,0
N-benzyl-1-phenylmethanamine,416.45,1,c1ccc(CNCc2ccccc2)cc1,0,0,0,0
"tributyl 2-acetyloxypropane-1,2,3-tricarboxylate",386.15,1,CCCCOC(=O)CC(CC(=O)OCCCC)(C(=O)OCCCC)OC(=O)C,0,0,0,0
"Adenine, N,N-dimethyl- (8CI)",485.45,1,CN(C)c1ncnc2nc[nH]c12,0,0,0,0
"1H-Indole-3-ethanamine, alpha-methyl- (9CI)",462.15,1,CC(N)Cc1c[nH]c2ccccc12,0,0,0,0
"Phenol, 3,5-di-tert-butyl- (8CI)",400.35,1,CC(C)(C)c1cc(O)cc(C(C)(C)C)c1,0,0,0,0
bicyclohexyl,347,1,C1CCC(CC1)C1CCCCC1,0,0,0,0
METHYL ISOBUTYL ETHER,243,1,COCC(C)C,0,0,0,0
"Phosphorothioic acid, O-isopropyl O-methyl O-(4-nitro-m-tolyl) ester",452.15,1,COP(=S)(Oc1cc(C)ccc1[N+](=O)[O-])OC(C)C,0,0,0,1
"Phenol, 3-amino-",428.15,1,Nc1cccc(O)c1,0,0,0,0
"Benzoic acid, 3,4,5-trihydroxy-",544.15,1,O=C(O)c1cc(O)c(O)c(O)c1,0,0,0,1
"1-bromo-2,3-dimethylbenzene",357.15,1,Cc1cccc(Br)c1C,0,0,0,0
trans-2-methylcyclohexanol,332,1,C[C@H]1[C@@H](CCCC1)O,0,0,0,0
"Benzenemethanol, 4-chloro- (9CI)",343.15,1,OCc1ccc(Cl)cc1,0,0,0,0
"2-Propenoic acid, 3-phenyl-, phenylmethyl ester",498.85,1,O=C(C=Cc1ccccc1)OCc1ccccc1,0,0,0,1
"Anthracene, 2-nitro-",487.85,1,O=[N+]([O-])c1ccc2cc3ccccc3cc2c1,0,0,0,0
"1,2-dichloro-4-(dichloromethyl)benzene",397.15,1,Clc1ccc(C(Cl)Cl)cc1Cl,0,0,0,0
1-nitropropane,307,1,[N+](=O)([O-])CCC,0,0,0,0
"Methane, dibromonitro-",319.25,1,O=[N+]([O-])C(Br)Br,0,0,0,0
undecanal,368,1,C(CCCCCCCCCC)=O,0,0,0,0
"1,3,5,7-Tetrazocine, octahydro-1,3,5,7-tetranitro-",774.95,1,O=[N+]([O-])N1CN([N+](=O)[O-])CN([N+](=O)[O-])CN([N+](=O)[O-])C1,0,0,0,0
"2-bromo-1,3-thiazole",336.15,1,Brc1nccs1,0,0,0,0
"p-Benzoquinone, 2-chloro- (8CI)",356.35,1,O=C1C=CC(=O)C(Cl)=C1,0,0,0,0
N-butylacetamide,388,1,C(CCC)NC(C)=O,0,0,0,0
"2H-1-Benzopyran-2-one, 5,7-dihydroxy-4-methyl-",470.95,1,Cc1cc(=O)oc2cc(O)cc(O)c12,0,0,0,0
2-chloroacetamide,443.15,1,C(C(=O)N)Cl,0,0,0,0
3-Chloro-2-methylpentane,294,1,CCC(Cl)C(C)C,0,0,0,0
"1-Butanamine, N,N-diethyl-",299.95,1,CCCCN(CC)CC,0,0,0,0
"2,3,5-trimethyl-1H-indole",399.75,1,Cc1ccc2[nH]c(C)c(C)c2c1,0,0,0,0
acetonitrile,275,1,C(C)#N,0,0,0,0
"2-[2-(4-benzo[b][1,4]benzothiazepin-6-ylpiperazin-1-yl)ethoxy]ethanol",282.15,1,C1CN(CCN1CCOCCO)C2=NC3=CC=CC=C3SC4=CC=CC=C42,0,0,0,0
"Benzimidazole, 5-amino-2-(trifluoromethyl)-",440.45,1,Nc1ccc2nc(C(F)(F)F)[nH]c2c1,0,0,0,0
"ethyl 2,2,3,3,4,4,4-heptafluorobutanoate",287.55,1,CCOC(=O)C(F)(F)C(F)(F)C(F)(F)F,0,0,0,0
1-methylimidazole,365.15,1,Cn1ccnc1,0,0,0,0
1-Chlorotridecane,387,1,CCCCCCCCCCCCCCl,0,0,0,0
3-chloropropyl acetate,340.95,1,CC(=O)OCCCCl,0,0,0,0
iodobenzene,350.15,1,C1=CC=C(C=C1)I,0,0,0,0
3-Nitropentan-2-ol,363.75,1,CCC(C(C)O)[N+](=O)[O-],0,0,0,0
"2-Cyclohexen-1-one, 2-methyl-5-(1-methylethenyl)-, (R)- (9CI)",361.15,1,C=C(C)[C@@H]1CC=C(C)C(=O)C1,0,0,0,0
3-chloropropoxybenzene,448.35,1,ClCCCOc1ccccc1,0,0,0,0
"Benzoic acid, 2-amino-, cyclohexyl ester",465.45,1,Nc1ccccc1C(=O)OC1CCCCC1,0,0,0,1
Ethyl 2-naphthyl ether,400.15,1,CCOc1ccc2ccccc2c1,0,0,0,0
"1,2,4-trimethylbenzene",319,1,CC1=C(C=C(C=C1)C)C,0,0,0,0
"Phenol, 3,5-dimethyl-4-(methylthio)-, methylcarbamate (9CI)",414.85,1,CNC(=O)Oc1cc(C)c(SC)c(C)c1,0,0,0,0
undecyl methanoate,385,1,CCCCCCCCCCCOC=O,0,0,0,0
"Nonanoic acid, 9-chloro-",409.05,1,O=C(O)CCCCCCCCCl,0,0,0,1
N-(4-Phenoxyphenyl)acetamide,475.35,1,CC(=O)Nc1ccc(Oc2ccccc2)cc1,0,0,0,0
"(1,1':4',1''-Terphenyl)-4,4''-diamine",569.45,1,Nc1ccc(-c2ccc(-c3ccc(N)cc3)cc2)cc1,0,0,0,0
"9,10-Anthracenedione, 1,5-diamino-",560.75,1,Nc1cccc2c1C(=O)c1cccc(N)c1C2=O,0,0,0,0
"1,1,1-trifluoro-2-iodoethane",280.55,1,FC(F)(F)CI,0,0,0,0
"Benzaldehyde, p-(diethylamino)- (8CI)",383.35,1,CCN(CC)c1ccc(C=O)cc1,0,0,0,0
"Propionaldehyde, 2-methyl-2-(methylthio)-, oxime",354.25,1,CSC(C)(C)C=NO,0,0,0,0
"Carbamic acid, methyl-, 3,5-diisopropylphenyl ester",406.95,1,CNC(=O)Oc1cc(C(C)C)cc(C(C)C)c1,0,0,0,1
hexyl 2-methylprop-2-enoate,355.15,1,CCCCCCOC(=O)C(=C)C,0,0,0,0
"Silane, dimethoxymethylphenyl-",353.15,1,COC(OC)[SiH2]c1ccccc1,1,1,0,0
1-methyl-2-phenoxybenzene,380.05,1,Cc1ccccc1Oc1ccccc1,0,0,0,0
"3,5-dimethyl-1H-pyrazole",363.65,1,Cc1cc(C)[nH]n1,0,0,0,0
diphenylmethane,400,1,C1(=CC=CC=C1)CC1=CC=CC=C1,0,0,0,0
"Benzenamine, 4-(1,1-dimethylethyl)-",374.15,1,CC(C)(C)c1ccc(N)cc1,0,0,0,0
"2,2',2''-(Hexahydro-1,3,5-triazine-1,3,5-triyl)triethanol",493.25,1,OCCN1CN(CCO)CN(CCO)C1,0,0,0,0
"Benzamide, N,N-diethyl-2-methyl-",412.95,1,CCN(CC)C(=O)c1ccccc1C,0,0,0,0
"1,4-Benzenediamine, N-phenyl-",470.95,1,Nc1ccc(Nc2ccccc2)cc1,0,0,0,0
1-acetylpiperidin-4-one,361.05,1,CC(=O)N1CCC(=O)CC1,0,0,0,0
10-chloro-3-decyne,359,1,ClCCCCCCC#CCC,0,0,0,0
"Propane, 1-chloro-2,3-epithio-",330.65,1,ClCC1CS1,0,0,0,0
propyl 2-chloroacetate,342.45,1,CCCOC(=O)CCl,0,0,0,0
"1,3,5-triphenylbenzene",511.15,1,c1ccc(-c2cc(-c3ccccc3)cc(-c3ccccc3)c2)cc1,0,0,0,0
N-ethyl-N-methylethanamine,250,1,C(C)N(CC)C,0,0,0,0
"N'-methylethane-1,2-diamine",314.25,1,CNCCN,0,0,0,0
"Urea, 1-butyl-2-thio-",349.25,1,CCCCNC(N)=S,0,0,0,0
"Benzoic acid, 2,3,5-trichloro-6-methoxy- (9CI)",440.65,1,COc1c(Cl)cc(Cl)c(Cl)c1C(=O)O,0,0,0,1
2-ethylphenol,358,1,C(C)C1=C(C=CC=C1)O,0,0,0,0
2-hydroxyethyl carbamate,461.15,1,C(COC(=O)N)O,0,0,0,0
"Benzene, 1-chloro-4-(methylsulfinyl)-",408.65,1,CS(=O)c1ccc(Cl)cc1,0,0,0,0
"Xanthen-9-one, 1,7-dihydroxy-3-methoxy-",478.35,1,COc1cc(O)c2c(=O)c3cc(O)ccc3oc2c1,0,0,0,0
"1H-Pyrrole-2,5-dione, 1-(4-chlorophenyl)- (9CI)",439.05,1,O=C1C=CC(=O)N1c1ccc(Cl)cc1,0,0,0,0
N-butylaniline,380,1,C(CCC)NC1=CC=CC=C1,0,0,0,0
"Quinoline, 4-methoxy-",362.85,1,COc1ccnc2ccccc12,0,0,0,0
"Acetonitrile, hydroxy-",329.25,1,N#CCO,0,0,0,0
"Benzenemethanamide, N-nitroso-N-(phenylmethyl)- (9CI)",481.55,1,O=NN(Cc1ccccc1)C(=O)c1ccccc1,0,0,0,0
Ethanediamide,385.85,1,NC(=O)C(N)=O,0,0,0,0
"Acetic acid, bromochloro-",356.85,1,O=C(O)C(Cl)Br,0,0,0,1
"2-bromo-2-nitropropane-1,3-diol",440.15,1,C(C(CO)([N+](=O)[O-])Br)O,0,0,0,0
"Butane, 2,3-dimethyl-2,3-dinitro-",353.35,1,CC(C)([N+](=O)[O-])C(C)(C)[N+](=O)[O-],0,0,0,0
"Cyclopropanecarboxanilide, 3',4'-dichloro-",470.45,1,O=C(Nc1ccc(Cl)c(Cl)c1)C1CC1,0,0,0,0
"Benzothiazole, 2-(butylthio)-",432.75,1,CCCCSc1nc2ccccc2s1,0,0,0,0
2-hydroxyethyl 2-methylprop-2-enoate,370.15,1,CC(=C)C(=O)OCCO,0,0,0,0
"2-Butenoic acid, 2-(1-methylheptyl)-4,6-dinitrophenyl ester",447.05,1,CC=CC(=O)Oc1c(C(C)CCCCCC)cc([N+](=O)[O-])cc1[N+](=O)[O-],0,0,0,1
ethyl 4-methylbenzoate,372.55,1,CCOC(=O)c1ccc(C)cc1,0,0,0,0
"2,4-Imidazolidinedione, 3-bromo-1-chloro-5,5-dimethyl-",367.65,1,CC1(C)C(=O)N(Br)C(=O)N1Cl,0,0,0,0
2-ethylfuran,271,1,C(C)C=1OC=CC1,0,0,0,0
"1-ethoxy-1,1,2,2-tetrafluoroethane",330.15,1,CCOC(F)(F)C(F)F,0,0,0,0
Propionamide,358.05,1,CCC(N)=O,0,0,0,0
2-phenylethanol,375,1,C1(=CC=CC=C1)CCO,0,0,0,0
"Benzene, 1,2-dimethyl-3-nitro-",380.95,1,Cc1cccc([N+](=O)[O-])c1C,0,0,0,0
9H-Fluoren-1-amine (9CI),461.95,1,Nc1cccc2c1Cc1ccccc1-2,0,0,0,0
"1,1,2,3,3,4,4,5,5,6,6,7,7,7-tetradecafluorohept-1-ene",288.65,1,FC(F)=C(F)C(F)(F)C(F)(F)C(F)(F)C(F)(F)C(F)(F)F,0,0,0,0
"Androst-4-en-3-one, 17-(1-oxopropoxy)-, (17beta)-",469.45,1,CCC(=O)O[C@H]1CC[C@H]2[C@@H]3CCC4=CC(=O)CC[C@]4(C)[C@H]3CC[C@]12C,0,0,0,0
chlorosulfanyl thiohypochlorite,391.15,1,S(SCl)Cl,0,0,0,0
cycloheptanol,344,1,C1(CCCCCC1)O,0,0,0,0
1-(p-Toluenesulphonyl)imidazole,474.35,1,Cc1ccc(S(=O)(=O)n2ccnc2)cc1,0,0,0,0
1-butylpyrrole,330.05,1,CCCCn1cccc1,0,0,0,0
"Pyridine, 3,4-dimethyl-",326.15,1,Cc1ccncc1C,0,0,0,0
"Guanidine, (2-(hexahydro-1(2H)-azocinyl)ethyl)-",435.95,1,N=C(N)NCCN1CCCCCCC1,0,0,0,0
1-bromoheptane,334,1,BrCCCCCCC,0,0,0,0
"Phenanthrene, 2-methyl-",430.65,1,Cc1ccc2c(ccc3ccccc32)c1,0,0,0,0
"Propane, 1,2-dibromo-",308.15,1,CC(Br)CBr,0,0,0,0
"Phosphorotrithioic acid, O,S,S-triethyl ester",400.85,1,CCOP(=S)(SCC)SCC,0,0,0,1
2-(dimethylamino)propan-1-ol,305.25,1,CC(CO)N(C)C,0,0,0,0
(2-tert-butylphenyl) phenyl phosphate,519.15,1,CC(C)(C)C1=CC=CC=C1OP(=O)([O-])OC2=CC=CC=C2,0,0,0,0
"5-ethoxy-3-(trichloromethyl)-1,2,4-thiadiazole",427.15,1,CCOC1=NC(=NS1)C(Cl)(Cl)Cl,0,0,0,0
"Phosphinic acid, phenyl-",399.381,1,O=[PH](O)c1ccccc1,0,0,0,1
"Naphthalene-1,8-dicarboxylic anhydride",479.95,1,O=C1OC(=O)c2cccc3cccc1c23,0,0,0,0
"1,1,2-trichloro-2-fluoroethane",283.35,1,FC(Cl)C(Cl)Cl,0,0,0,0
"Acetamide, N-phenyl-N-vinyl-",386.05,1,C=CN(C(C)=O)c1ccccc1,0,0,0,0
"4-tert-butyl-2,5-dimethylphenol",390.95,1,Cc1cc(C(C)(C)C)c(C)cc1O,0,0,0,0
"2,4-Hexadienal",341.15,1,CC=CC=CC=O,0,0,0,0
1-tert-butyl-4-methylbenzene,331.15,1,CC1=CC=C(C=C1)C(C)(C)C,0,0,0,0
"Phenol, 2-methoxy-4-(1-propenyl)-, acetate",387.05,1,CC=Cc1ccc(OC(C)=O)c(OC)c1,0,0,0,0
"Styrene, alpha,beta,beta-trifluoro-",305.35,1,FC(F)=C(F)c1ccccc1,0,0,0,0
butan-2-yloxybenzene,344.75,1,CCC(C)Oc1ccccc1,0,0,0,0
"2,5-Pyrrolidinedione, 3-ethyl-3-methyl-",396.95,1,CCC1(C)CC(=O)NC1=O,0,0,0,0
"propan-2-yl (2E,4E)-11-methoxy-3,7,11-trimethyldodeca-2,4-dienoate",460.15,1,CC(C)OC(=O)C=C(C)C=CCC(C)CCCC(C)(C)OC,0,0,0,0
"Benzylamine, p-methyl- (8CI)",348.15,1,Cc1ccc(CN)cc1,0,0,0,0
pentadecan-2-ol,382.15,1,CCCCCCCCCCCCCC(C)O,0,0,0,0
"Anthranilic acid, 3-hydroxy- (8CI)",442.75,1,Nc1c(O)cccc1C(=O)O,0,0,0,1
2-methylpentane,241,1,CC(C)CCC,0,0,0,0
"Cyclohexanol, 1-ethynyl-, carbamate",404.15,1,C#CC1(OC(N)=O)CCCCC1,0,0,0,0
"3,4-dimethyl-1,2,5-oxadiazole",308.65,1,Cc1nonc1C,0,0,0,0
"1H-Isoindole-1,3(2H)-dione, 2-butyl-3a,4,7,7a-tetrahydro- (9CI)",421.95,1,CCCCN1C(=O)C2CC=CCC2C1=O,0,0,0,0
"Benzothiazole, 2-amino-6-methoxy-",437.05,1,COc1ccc2nc(N)sc2c1,0,0,0,0
"Phosphorodichloridothioic acid, O-ethyl ester",336.15,1,CCOP(=S)(Cl)Cl,0,0,0,1
"1,2-dimethyl-4-nitrobenzene",380.15,1,CC1=C(C=C(C=C1)[N+](=O)[O-])C,0,0,0,0
2-(4-methylphenyl)acetonitrile,379.25,1,Cc1ccc(CC#N)cc1,0,0,0,0
"p-Benzoquinone, 2,3,5,6-tetramethyl- (8CI)",356.75,1,CC1=C(C)C(=O)C(C)=C(C)C1=O,0,0,0,0
"1,6-Dibromo-1,1,2,2,3,3,4,4,5,5,6,6-dodecafluorohexane",319.55,1,FC(F)(Br)C(F)(F)C(F)(F)C(F)(F)C(F)(F)C(F)(F)Br,0,0,0,0
3-undecanone,362,1,CCC(CCCCCCCC)=O,0,0,0,0
pyridin-2-amine,365.15,1,C1=CC=NC(=C1)N,0,0,0,0
"3-Cyclohexene-1-methanol, alpha,alpha,4-trimethyl-, acetate",356.15,1,CC(=O)OC(C)(C)C1CC=C(C)CC1,0,0,0,0
5-METHYL-1-HEXANOL,340,1,CC(C)CCCCO,0,0,0,0
"Benzenemethanamine, 2-methyl-",357.05,1,Cc1ccccc1CN,0,0,0,0
"Cyclohexene-1,2-dicarboxylic acid, bis(2-ethylhexyl) ester",491.85,1,CCCCC(CC)COC(=O)C1=C(C(=O)OCC(CC)CCCC)CCCC1,0,0,0,1
"Carbamic acid, methyl-, 2-chlorophenyl ester",380.45,1,CNC(=O)Oc1ccccc1Cl,0,0,0,1
"2,4,4-trimethylpentan-1-ol",333,1,OCC(C)CC(C)(C)C,0,0,0,0
formic acid,342,1,O=CO,0,0,0,1
"2,2,3,3-tetramethylhexane",304,1,CC(C)(C(CCC)(C)C)C,0,0,0,0
1-chloro-6-fluorohexane,316.95,1,FCCCCCCCl,0,0,0,0
"Urea, 1,3-diethyl-2-thio-",329.35,1,CCNC(=S)NCC,0,0,0,0
"Benzeneacetic acid, 1-methylethyl ester",370.65,1,CC(C)OC(=O)Cc1ccccc1,0,0,0,1
trans-2-hexene,248,1,C\C=C\CCC,0,0,0,0
2-Chloro-4-methylpentane,294,1,CC(C)CC(C)Cl,0,0,0,0
10-Undecenoic acid,418.965,1,C=CCCCCCCCCC(=O)O,0,0,0,1
ethyl 2-hydroxyacetate,334.85,1,CCOC(=O)CO,0,0,0,0
2-ethoxybenzaldehyde,380.15,1,CCOc1ccccc1C=O,0,0,0,0
"1-Hexanol, 2,2-dimethyl-",333.75,1,CCCCC(C)(C)CO,0,0,0,0
"Benzonitrile, 4-hydroxy-3-iodo-5-nitro-",396.35,1,N#Cc1cc(I)c(O)c([N+](=O)[O-])c1,0,0,0,0
"Phosphoric acid, tris(3-methylphenyl) ester",507.45,1,Cc1cccc(OP(=O)(Oc2cccc(C)c2)Oc2cccc(C)c2)c1,0,0,0,1
2-methylbutanenitrile,297.55,1,CCC(C)C#N,0,0,0,0
"Glycine, N,N'-(2-hydroxy-1,3-propanediyl)bis(N-(carboxymethyl)-",628.75,1,O=C(O)CN(CC(=O)O)CC(O)CN(CC(=O)O)CC(=O)O,0,0,0,0
"Sulfanilamide, N1-amidino- (8CI)",522.35,1,N=C(N)NS(=O)(=O)c1ccc(N)cc1,0,0,0,0
cyclohexanecarboxaldehyde,314,1,C1(CCCCC1)C=O,0,0,0,0
"2-iodo-1,3-dimethylbenzene",375.15,1,Cc1cccc(C)c1I,0,0,0,0
heptadecan-1-amine,419.35,1,CCCCCCCCCCCCCCCCCN,0,0,0,0
diethyl 2-methylidenebutanedioate,381.15,1,C=C(CC(=O)OCC)C(=O)OCC,0,0,0,0
"Toluene-3,5-diamine, alpha,alpha,alpha-trifluoro- (8CI)",395.65,1,Nc1cc(N)cc(C(F)(F)F)c1,0,0,0,0
1-bromopropane,269,1,BrCCC,0,0,0,0
butyl 2-chloroacetate,353.05,1,CCCCOC(=O)CCl,0,0,0,0
"Propionic acid, 3-bromo-, methyl ester (8CI)",348.15,1,COC(=O)CCBr,0,0,0,1
"Benzenamine, 2,4-dimethyl-",363.75,1,Cc1ccc(N)c(C)c1,0,0,0,0
"1-Nonanol, 2,2,3,3,4,4,5,5,6,6,7,7,8,8,9,9-hexadecafluoro-",346.55,1,OCC(F)(F)C(F)(F)C(F)(F)C(F)(F)C(F)(F)C(F)(F)C(F)(F)C(F)F,0,0,0,0
2-amino-2-methyl-1-propanol,341,1,NC(CO)(C)C,0,0,0,0
didecyl phenyl phosphite,698.15,1,CCCCCCCCCCOP(OCCCCCCCCCC)OC1=CC=CC=C1,0,0,0,0
heptadecylcyclohexane,461.25,1,CCCCCCCCCCCCCCCCCC1CCCCC1,0,0,0,0
"Methane, triiodo-",477.15,1,IC(I)I,0,0,0,0
naphthalen-1-ylmethanol,427.15,1,OCc1cccc2ccccc12,0,0,0,0
1-(4-methylphenyl)ethanol,375.15,1,Cc1ccc(C(C)O)cc1,0,0,0,0
ethyl 2-cyano-2-ethylbutanoate,363.35,1,CCOC(=O)C(C#N)(CC)CC,0,0,0,0
"1,2-Hexanediol",395.15,1,CCCCC(O)CO,0,0,0,0
ethyl 2-ethoxyacetate,321.45,1,CCOCC(=O)OCC,0,0,0,0
"2,3-Phenazinediamine (9CI)",555.85,1,Nc1cc2nc3ccccc3nc2cc1N,0,0,0,0
tert-butyl methanoate,264,1,O=COC(C)(C)C,0,0,0,0
"Methane, dichloro-",312.65,1,ClCCl,0,0,0,0
4-(Chloromethyl)benzonitrile,393.35,1,N#Cc1ccc(CCl)cc1,0,0,0,0
4-propylanisole,355,1,C(CC)C1=CC=C(C=C1)OC,0,0,0,0
"2,3,5,6-Tetramethyl-p-phenylenediamine",440.95,1,Cc1c(C)c(N)c(C)c(C)c1N,0,0,0,0
"1,3-dichlorobutane",303.75,1,CC(Cl)CCCl,0,0,0,0
"2-Propenal, 2-bromo-3-phenyl- (9CI)",383.35,1,O=CC(Br)=Cc1ccccc1,0,0,0,0
"Sulfide, 2-chloroethyl ethyl (8CI)",325.15,1,CCSCCCl,0,0,0,0
"1,3-Butadiene, 1,1,2-trichloro-",349.15,1,C=CC(Cl)=C(Cl)Cl,0,0,0,0
"Pregn-4-ene-3,20-dione, 11,17,21-trihydroxy-, (11beta)-",583.55,1,C[C@]12C[C@H](O)[C@H]3[C@@H](CCC4=CC(=O)CC[C@@]43C)[C@@H]1CC[C@]2(O)C(=O)CO,0,0,0,0
"Urea, N'-(4-chlorophenyl)-N,N-dimethyl-",443.95,1,CN(C)C(=O)Nc1ccc(Cl)cc1,0,0,0,0
2-dodecanone,381,1,CC(CCCCCCCCCC)=O,0,0,0,0
"Methanesulfonamide, N,N-bis(2-(methylsulfonyloxy)ethyl)-",580.65,1,CS(=O)(=O)OCCN(CCOS(C)(=O)=O)S(C)(=O)=O,0,0,0,0
"Phosphorothioic acid, O,O-diethyl S-(2-(ethylthio)ethyl) ester",420.75,1,CCOP(=O)(OCC)SCCSCC,0,0,0,1
"2,2,2-trifluoroethanamine",257.15,1,NCC(F)(F)F,0,0,0,0
1H-imidazole,418.15,1,C1=CN=CN1,0,0,0,0
"Benzoic acid, 3-(acetylamino)-2,4,6-triiodo-5-((methylamino)carbonyl)-",541.55,1,CNC(=O)c1c(I)c(NC(C)=O)c(I)c(C(=O)O)c1I,0,0,0,1
"Cyclopentene, 3-chloro-",281.85,1,ClC1C=CCC1,0,0,0,0
1-thiophen-3-ylethanone,342.15,1,CC(=O)c1ccsc1,0,0,0,0
1-butoxy-4-methylbenzene,368.95,1,CCCCOc1ccc(C)cc1,0,0,0,0
"2(3H)-Benzoxazolone, 6-chloro-3-(hydroxymethyl)-",436.65,1,O=c1oc2cc(Cl)ccc2n1CO,0,0,0,0
Dibenzothiophene,443.15,1,c1ccc2c(c1)sc1ccccc12,0,0,0,0
4-chlorotoluene,319,1,ClC1=CC=C(C)C=C1,0,0,0,0
"1-Propanethiol, 3-(trimethoxysilyl)-",322.05,1,CO[Si](CCCS)(OC)OC,1,1,0,0
"2-Propanol, 1-bromo-",327.55,1,CC(O)CBr,0,0,0,0
"2H-1,4-Benzodiazepin-2-one, 1,3-dihydro-7-nitro-5-phenyl-",527.55,1,O=C1CN=C(c2ccccc2)c2cc([N+](=O)[O-])ccc2N1,0,0,0,0
ethyl 3-phenylpropanoate,381.15,1,CCOC(=O)CCc1ccccc1,0,0,0,0
tert-butylalcohol,284,1,C(C)(C)(C)O,0,0,0,0
"Butyric acid, 2-bromo- (8CI)",357.95,1,CCC(Br)C(=O)O,0,0,0,1
"Benzaldehyde, 4-(N-nitrosomethylamino)-",425.25,1,O=Cc1ccc(NCN=O)cc1,0,0,0,0
"1,3-Benzenedicarboxylic acid, bis(2-ethylhexyl) ester",481.55,1,CCCCC(CC)COC(=O)c1cccc(C(=O)OCC(CC)CCCC)c1,0,0,0,1
"4(1H)-Pyrimidinone, 2,3-dihydro-6-methyl-2-thioxo-",433.95,1,Cc1cc(=O)[nH]c(=S)[nH]1,0,0,0,0
decylacetate,377,1,C(CCCCCCCCC)OC(C)=O,0,0,0,0
"Benz(a)anthracene, 1-methyl-",490.95,1,Cc1cccc2ccc3cc4ccccc4cc3c12,0,0,0,0
1-chloro-3-iodopropane,327.85,1,ClCCCI,0,0,0,0
"Pyrimidine, 2-chloro-4-(dimethylamino)-6-methyl-",403.05,1,Cc1cc(N(C)C)nc(Cl)n1,0,0,0,0
"Acetamide, 2-chloro-N,N-diethyl-",350.15,1,CCN(CC)C(=O)CCl,0,0,0,0
2-Chlorononane,338.3,1,CCCCCCCC(C)Cl,0,0,0,0
ethyl 3-aminobenzoate,384.55,1,CCOC(=O)c1cccc(N)c1,0,0,0,0
tridecyl prop-2-enoate,405.15,1,CCCCCCCCCCCCCOC(=O)C=C,0,0,0,0
"o-Cresol, tetrabromo- (8CI)",443.45,1,Cc1c(O)c(Br)c(Br)c(Br)c1Br,0,0,0,0
4-Hydroxy-3-methoxybenzonitrile,403.25,1,COc1cc(C#N)ccc1O,0,0,0,0
"Hexanedial, 2-hydroxy-2,5-dimethyl- (9CI)",388.15,1,CC(C=O)CCC(C)(O)C=O,0,0,0,0
"(1,1'-Biphenyl)-2,2'-dicarboxaldehyde (9CI)",424.25,1,O=Cc1ccccc1-c1ccccc1C=O,0,0,0,0
"1,3-Cyclohexanedione",358.85,1,O=C1CCCC(=O)C1,0,0,0,0
"Phenol, 2,5-dinitro-",414.65,1,O=[N+]([O-])c1ccc([N+](=O)[O-])c(O)c1,0,0,0,0
"Acetanilide, 2-fluoro-4'-phenyl-",486.25,1,O=C(CF)Nc1ccc(-c2ccccc2)cc1,0,0,0,0
1H-indene,351.15,1,C1C=CC2=CC=CC=C21,0,0,0,0
ethyl 4-ethoxybenzoate,387.15,1,CCOC(=O)c1ccc(OCC)cc1,0,0,0,0
"Propane, 1,2-dibromo-2-methyl-",299.35,1,CC(C)(Br)CBr,0,0,0,0
"2,2-dimethylcyclopentanone",306,1,CC1(C(CCC1)=O)C,0,0,0,0
"1,2,3,4-Butanetetrol, (2R,3S)-rel-",481.95,1,OC[C@H](O)[C@H](O)CO,0,0,0,0
"Ethane, 1,1,1,2-tetrachloro-2,2-difluoro-",284.95,1,FC(F)(Cl)C(Cl)(Cl)Cl,0,0,0,0
[3-(hydroxymethyl)cyclohexyl]methanol,404.65,1,OCC1CCCC(CO)C1,0,0,0,0
prop-2-enyl 2-(3-methylbutoxy)acetate,341.15,1,CC(C)CCOCC(=O)OCC=C,0,0,0,0
"Benz(a)anthracene-7,12-quinone",448.65,1,O=C1c2ccccc2C(=O)c2c1ccc1ccccc21,0,0,0,0
cis-2-pentene,227,1,C\C=C/CC,0,0,0,0
"8H-Benzo(g)-1,3-benzodioxolo(6,5,4-de)quinolin-8-one (9CI)",548.15,1,O=C1c2ccccc2-c2c3c(cc4ccnc1c24)OCO3,0,0,0,0
"D-Glucitol, 4-O-beta-D-galactopyranosyl-",703.85,1,OC[C@H](O)[C@@H](O)[C@H](O[C@@H]1O[C@H](CO)[C@H](O)[C@H](O)[C@H]1O)[C@H](O)CO,0,0,0,0
"2-Pentenedioic acid, 3-((dimethoxyphosphinyl)oxy)-, dimethyl ester",439.95,1,COC(=O)C=C(CC(=O)OC)OP(=O)(OC)OC,0,0,0,1
"2-Propenoic acid, tridecyl ester",391.15,1,C=CC(=O)OCCCCCCCCCCCCC,0,0,0,1
3-methylbut-2-enal,310.15,1,CC(=CC=O)C,0,0,0,0
trans-4-methylcyclohexanol,343,1,C[C@@H]1CC[C@H](CC1)O,0,0,0,0
"Propane, 1,2-epoxy-3-(p-vinylphenoxy)- (7CI,8CI)",399.65,1,C=Cc1ccc(OCC2CO2)cc1,0,0,0,0
dicyclopropylmethanone,312.55,1,O=C(C1CC1)C1CC1,0,0,0,0
"4-Pyridinecarboxylic acid, 1,2-dihydro-6-hydroxy-2-oxo-",454.05,1,O=C(O)c1cc(O)[nH]c(=O)c1,0,0,0,1
N-cyclohexylformamide,422.15,1,O=CNC1CCCCC1,0,0,0,0
"Propane, 1,2,2-trichloropentafluoro-",277.55,1,FC(F)(F)C(Cl)(Cl)C(F)(F)Cl,0,0,0,0
"(2,2-dimethyl-1,3-dioxolan-4-yl)methanol",353.15,1,CC1(OCC(O1)CO)C,0,0,0,0
"Phosphonic acid, methyl-, diphenyl ester",383.15,1,CP(=O)(Oc1ccccc1)Oc1ccccc1,0,0,0,1
"Biphenyl, 2,2',4,4'-tetranitro- (8CI)",516.55,1,O=[N+]([O-])c1ccc(-c2ccc([N+](=O)[O-])cc2[N+](=O)[O-])c([N+](=O)[O-])c1,0,0,0,0