compound,flashpoint,pure substance,smiles,is_silicon,is_metallic,is_tin,is_acid
3-Methylcyclopentadecan-1-one,418.45,1,CC1CCCCCCCCCCCCC(=O)C1,0,0,0,0
"2,4-Pyrimidinediamine, 5-((3,4,5-trimethoxyphenyl)methyl)-",545.05,1,COc1cc(Cc2cnc(N)nc2N)cc(OC)c1OC,0,0,0,0
"1H-Isoindole-1,3(2H)-dione, 2-(2,6-dioxo-3-piperidinyl)-",535.25,1,O=C1CCC(N2C(=O)c3ccccc3C2=O)C(=O)N1,0,0,0,0
"1-methyl-2,4-dinitrobenzene",480.15,1,CC1=C(C=C(C=C1)[N+](=O)[O-])[N+](=O)[O-],0,0,0,0
"methyl 2,2,2-trifluoroacetate",266.15,1,COC(=O)C(F)(F)F,0,0,0,0
2-(oxiran-2-ylmethoxymethyl)oxirane,337.15,1,C1C(O1)COCC2CO2,0,0,0,0
cyclohexyl benzoate,405.85,1,O=C(OC1CCCCC1)c1ccccc1,0,0,0,0
3-methylstyrene,321,1,CC=1C=C(C=C)C=CC1,0,0,0,0
"Ethanone, 1-(2-naphthalenyl)-",441.15,1,CC(=O)c1ccc2ccccc2c1,0,0,0,0
"Benzenamine, 4,4'-carbonimidoylbis(N,N-dimethyl-",472.55,1,CN(C)c1ccc(C(=N)c2ccc(N(C)C)cc2)cc1,0,0,0,0
"1,3-Dioxane, 5-ethyl-5-nitro-2-propyl- (9CI)",389.75,1,CCCC1OCC(CC)([N+](=O)[O-])CO1,0,0,0,0
"Carbamic acid, methyl-, carvacryl ester",397.35,1,CNC(=O)Oc1cc(C(C)C)ccc1C,0,0,0,1
"2(1H)-Pyrimidinone, tetrahydro-1,3-dimethyl-",358.45,1,CN1CCCN(C)C1=O,0,0,0,0
cyclopentanone,299,1,C1(CCCC1)=O,0,0,0,0
"4,7,7-trimethylbicyclo[2.2.1]hept-2-ene",298.05,1,CC12C=CC(CC1)C2(C)C,0,0,0,0
"1,2-xylene",290.15,1,CC1=CC=CC=C1C,0,0,0,0
1-phenylethanol,358.15,1,CC(C1=CC=CC=C1)O,0,0,0,0
"1-Butanamine, 4-(diethoxymethylsilyl)-",366.55,1,CCOC(OCC)[SiH2]CCCCN,1,1,0,0
"heptane-1,7-diamine",360.95,1,NCCCCCCCN,0,0,0,0
triethyl(hydroxy)silane,330.372,1,CC[Si](O)(CC)CC,1,1,0,0
"Pyridine, 3-(3,4-dihydro-2H-pyrrol-5-yl)- (9CI)",374.95,1,c1cncc(C2=NCCC2)c1,0,0,0,0
3-methyl-1-pentene,240,1,CC(C=C)CC,0,0,0,0
"2-Propenoic acid, 2-(dimethylamino)ethyl ester",302.15,1,C=CC(=O)OCCN(C)C,0,0,0,1
"Phenazine, 5-oxide",471.45,1,[O-][n+]1c2ccccc2nc2ccccc21,0,0,0,0
"Adenine, N-hydroxy-9-ribofuranosyl-",652.55,1,OC[C@H]1OC(n2cnc3c(NO)ncnc32)[C@H](O)[C@@H]1O,0,0,0,0
"2-ethenyl-1,3,5-trimethylbenzene",344.95,1,C=Cc1c(C)cc(C)cc1C,0,0,0,0
"Benzene, 1,4-difluoro- (9CI)",275.25,1,Fc1ccc(F)cc1,0,0,0,0
2butoxyethylsalicylate,430.35,1,CCCCOCCOc1ccccc1C(=O)[O-],0,0,0,0
2-propoxyphenol,370.35,1,CCCOc1ccccc1O,0,0,0,0
"3-methylpenta-1,3-diene",245,1,CC=C(C)C=C,0,0,0,0
"Benzamide, 2-methyl-",380.75,1,Cc1ccccc1C(N)=O,0,0,0,0
"Benzene, 4-allyl-1,2-(methylenedioxy)-",370.15,1,C=CCc1ccc2c(c1)OCO2,0,0,0,0
"Propionitrile, 3-(N-ethylanilino)- (6CI,7CI,8CI)",405.95,1,CCN(CCC#N)c1ccccc1,0,0,0,0
"6-Phenyl-1,3,5-triazine-2,4-diyldiamine",558.95,1,Nc1nc(N)nc(-c2ccccc2)n1,0,0,0,0
diallylsulfide,296,1,C(C=C)SCC=C,0,0,0,0
N-Hydroxy-9-methyladenine,481.65,1,Cn1cnc2c(NO)ncnc21,0,0,0,0
phenyl thiocyanate,367.55,1,N#CSc1ccccc1,0,0,0,0
sec-Hexyl acetate,318.15,1,CCCCC(C)OC(C)=O,0,0,0,0
"2-cyclohexylsulfanylisoindole-1,3-dione",450.15,1,C1CCC(CC1)SN2C(=O)C3=CC=CC=C3C2=O,0,0,0,0
"Phosphorotrithioic acid, O-methyl S,S-dipropyl ester",411.05,1,CCCSP(=S)(OC)SCCC,0,0,0,1
"Benzenamine, 3,4-dimethyl-",371.45,1,Cc1ccc(N)cc1C,0,0,0,0
"Azocine, octahydro-",302.55,1,C1CCCNCCC1,0,0,0,0
1-ethenyl-4-propan-2-ylbenzene,343.25,1,C=Cc1ccc(C(C)C)cc1,0,0,0,0
"1,4-Benzenediamine, N,N-diethyl-",412.15,1,CCN(CC)c1ccc(N)cc1,0,0,0,0
1-fluoro-3-(trifluoromethyl)benzene,280.35,1,Fc1cccc(C(F)(F)F)c1,0,0,0,0
(2E)-hept-2-ene,272,1,CCCC/C=C/C,0,0,0,0
3-butylphenol,395.85,1,CCCCc1cccc(O)c1,0,0,0,0
"6-methyl-7,8-dihydro-5H-[1,3]dioxolo[4,5-g]isoquinoline",396.15,1,CN1CCc2cc3c(cc2C1)OCO3,0,0,0,0
Benz(j)acephenanthrylene,520.25,1,C1=Cc2cc3c4ccccc4ccc3c3cccc1c23,0,0,0,0
TRI-n-BUTYLCHLOROGERMANE,367.15,1,CCCC[Ge](Cl)(CCCC)CCCC,0,1,0,0
"Ethanol, 2,2'-(tert-butylimino)di- (6CI,7CI,8CI)",391.15,1,CC(C)(C)N(CCO)CCO,0,0,0,0
cyclohexylacetate,331,1,C1(CCCCC1)CC(=O)[O-],0,0,0,0
diisopropylether,245,1,C(C)(C)OC(C)C,0,0,0,0
DIPHENYLPHOSPHINE,383.15,1,c1ccc(Pc2ccccc2)cc1,0,0,0,0
Inosine 5'-(trihydrogen pyrophosphate),786.45,1,O=P(O)(O)OP(=O)(O)OC[C@H]1O[C@@H](n2cnc3c(O)ncnc32)[C@H](O)[C@@H]1O,0,0,0,0
cis-decalin,323,1,C1CC[C@@H]2CCCC[C@@H]2C1,0,0,0,0
isothiocyanatocyclohexane,368.75,1,S=C=NC1CCCCC1,0,0,0,0
"2-Butanone, 4-phenyl-",371.15,1,CC(=O)CCc1ccccc1,0,0,0,0
diphenylmethane,403,1,c1ccc(cc1)Cc1ccccc1,0,0,0,0
"Indeno(1,2,3-cd)pyrene",520.35,1,c1ccc2c(c1)-c1ccc3ccc4cccc5cc-2c1c3c45,0,0,0,0
"Benzhydrol, 4-chloro- (8CI)",439.95,1,OC(c1ccccc1)c1ccc(Cl)cc1,0,0,0,0
"9,10-Anthracenedione, 1-amino-4-methoxy- (9CI)",548.05,1,COc1ccc(N)c2c1C(=O)c1ccccc1C2=O,0,0,0,0
"diethyl 2,2-dimethylpropanedioate",344.25,1,CCOC(=O)C(C)(C)C(=O)OCC,0,0,0,0
"Isoquinoline, 1-((3,4-dimethoxyphenyl)methyl)-6,7-dimethoxy-",445.35,1,COc1ccc(Cc2nccc3cc(OC)c(OC)cc23)cc1OC,0,0,0,0
"Benzene, 1,3-dimethyl-2-nitro-",360.95,1,Cc1cccc(C)c1[N+](=O)[O-],0,0,0,0
"2,3-dimethylaniline",370.15,1,CC1=C(C(=CC=C1)N)C,0,0,0,0
methyl (2E)-non-2-enoate,364,1,CCCCCC/C=C/C(=O)OC,0,0,0,0
"Phenol, 2,4,5-trichloro-",381.05,1,Oc1cc(Cl)c(Cl)cc1Cl,0,0,0,0
aceticanhydride,322,1,C(C)(=O)OC(C)=O,0,0,0,0
"9,10-Anthracenedione, 1-chloro-",452.85,1,O=C1c2ccccc2C(=O)c2c(Cl)cccc21,0,0,0,0
"(2Z)-penta-2,4-dienenitrile",312.25,1,C=C/C=C\C#N,0,0,0,0
2-nitroethylbenzene,391.95,1,O=[N+]([O-])CCc1ccccc1,0,0,0,0
"Acetic acid, phenyl-, butyl ester",377.85,1,CCCCOC(=O)Cc1ccccc1,0,0,0,1
"Valeric acid, propyl ester (8CI)",325.55,1,CCCCC(=O)OCCC,0,0,0,1
"Benzonitrile, 4-nitro-",413.05,1,N#Cc1ccc([N+](=O)[O-])cc1,0,0,0,0
"Aniline, 4-chloro-2,6-dinitro- (8CI)",444.65,1,Nc1c([N+](=O)[O-])cc(Cl)cc1[N+](=O)[O-],0,0,0,0
cyclooctanone,345.928,1,O=C1CCCCCCC1,0,0,0,0
"6-ethyl-1,2,3,4-tetrahydronaphthalene",376.35,1,CCc1ccc2c(c1)CCCC2,0,0,0,0
Monobromoacetic acid,352.163,1,O=C(O)CBr,0,0,0,1
TETRABUTYLDILAURYLDISTANNOXANE,504.15,1,CCCCCCCCCCCC[Sn](CCCC)(CCCCCCCCCCCC)O[Sn](CCCC)(CCCC)CCCC,0,1,1,0
"1H-Isoindole-1,3(2H)-dione, 2-(oxiranylmethyl)-",437.05,1,O=C1c2ccccc2C(=O)N1CC1CO1,0,0,0,0
"1,6-Pyrenequinone",450.95,1,O=c1ccc2ccc3c(=O)ccc4ccc1c2c43,0,0,0,0
methyl heneicosanoate,386,1,CCCCCCCCCCCCCCCCCCCCC(=O)OC,0,0,0,0
"4,7,7-trimethylbicyclo[2.2.1]heptane",305.55,1,CC12CCC(CC1)C2(C)C,0,0,0,0
"(4aR,8aR)-1,2,3,4,4a,5,6,7,8,8a-decahydroquinoline",341.45,1,C1CC[C@H]2NCCC[C@H]2C1,0,0,0,0
2-Chloro-2-methylhexane,306.7,1,CCCCC(C)(C)Cl,0,0,0,0
"1,2-Propanediol, 3-(2-methoxyphenoxy)-, 1-carbamate",512.75,1,COc1ccccc1OCC(O)COC(N)=O,0,0,0,0
"Benzaldehyde, 2,4-dinitro-",475.65,1,O=Cc1ccc([N+](=O)[O-])cc1[N+](=O)[O-],0,0,0,0
Bicyclo(2.2.1)heptane-2-methanol,357.15,1,OCC1CC2CCC1C2,0,0,0,0
2-methyl-1-pentanol,324,1,CC(CO)CCC,0,0,0,0
3-methylbutanoyl 3-methylbutanoate,364.45,1,CC(C)CC(=O)OC(=O)CC(C)C,0,0,0,0
9-(Hydroxymethyl)anthracene,469.45,1,OCc1c2ccccc2cc2ccccc12,0,0,0,0
trifluoromethoxybenzene,285.35,1,FC(F)(F)Oc1ccccc1,0,0,0,0
1-bromo-4-(4-bromophenoxy)benzene,413.45,1,Brc1ccc(Oc2ccc(Br)cc2)cc1,0,0,0,0
"Benzoic acid, 3,5-dichloro-",413.85,1,O=C(O)c1cc(Cl)cc(Cl)c1,0,0,0,1
2-ethylbutanoyl chloride,314.25,1,CCC(CC)C(=O)Cl,0,0,0,0
n-EICOSANE,440,1,CCCCCCCCCCCCCCCCCCCC,0,0,0,0
trans-2-DODECENE,351,1,C/C=C/CCCCCCCCC,0,0,0,0
"2-Anthracenecarboxylic acid, 9,10-dihydro-4,5,7-trihydroxy-9,10-dioxo-",657.85,1,O=C(O)c1cc(O)c2c(c1)C(=O)c1cc(O)cc(O)c1C2=O,0,0,0,1
pyridin-4-amine,437.15,1,C1=CN=CC=C1N,0,0,0,0
"1,1,2-tribromopropane",344.95,1,CC(Br)C(Br)Br,0,0,0,0
isoprene,225,1,C=CC(C)=C,0,0,0,0
"3-(2-methylpiperidin-1-yl)propyl 3,4-dichlorobenzoate",344.15,1,CC1CCCCN1CCCOC(=O)C2=CC(=C(C=C2)Cl)Cl,0,0,0,0
"2,2,3,3,3-pentafluoropropan-1-amine",322.65,1,NCC(F)(F)C(F)(F)F,0,0,0,0
4-[(E)-4-(4-hydroxyphenyl)hex-3-en-3-yl]phenol,377.15,1,CCC(=C(CC)C1=CC=C(C=C1)O)C2=CC=C(C=C2)O,0,0,0,0
2-methyl-5-propan-2-ylcyclohexan-1-ol,359.85,1,CC(C)C1CCC(C)C(O)C1,0,0,0,0
"Butanoic acid, 2-ethyl-2-methyl-",365.15,1,CCC(C)(CC)C(=O)O,0,0,0,1
1-phenoxypropan-2-one,358.15,1,CC(=O)COc1ccccc1,0,0,0,0
"Benzimidazole, 5-chloro-6-nitro-2-(trifluoromethyl)-",465.85,1,O=[N+]([O-])c1cc2nc(C(F)(F)F)[nH]c2cc1Cl,0,0,0,0
decylcyclopentane,388.55,1,CCCCCCCCCCC1CCCC1,0,0,0,0
1-cyclobutylethanone,305.45,1,CC(=O)C1CCC1,0,0,0,0
1-nitro-2-phenylbenzene,416.15,1,C1=CC=C(C=C1)C2=CC=CC=C2[N+](=O)[O-],0,0,0,0
"1,3-Isobenzofurandione, 4,5,6,7-tetrachloro-",434.75,1,O=C1OC(=O)c2c(Cl)c(Cl)c(Cl)c(Cl)c21,0,0,0,0
"Oxirane, 2,2'-((1-methylethylidene)bis(4,1-phenyleneoxymethylene))bis-",563.15,1,CC(C)(c1ccc(OCC2CO2)cc1)c1ccc(OCC2CO2)cc1,0,0,0,0
"Butanedioic acid, 2,3-dimercapto-",388.772,1,O=C(O)C(S)C(S)C(=O)O,0,0,0,1
1-iodo-4-phenylbenzene,418.95,1,Ic1ccc(-c2ccccc2)cc1,0,0,0,0
"Quinoxaline, 2,3-dichloro-",416.05,1,Clc1nc2ccccc2nc1Cl,0,0,0,0
"Spiro(bicyclo(3.1.1)heptane-2,2'-oxirane), 6,6-dimethyl-",339.15,1,CC1(C)C2CCC3(CO3)C1C2,0,0,0,0
"2H-1-Benzopyran-2-one, 6-methyl-",397.45,1,Cc1ccc2oc(=O)ccc2c1,0,0,0,0
"1,2,3-trichloro-4-(2,3,4-trichlorophenyl)benzene",414.15,1,C1=CC(=C(C(=C1C2=C(C(=C(C=C2)Cl)Cl)Cl)Cl)Cl)Cl,0,0,0,0
"1,4-dibromo-2-methylbenzene",381.05,1,Cc1cc(Br)ccc1Br,0,0,0,0
L-Histidine,555.15,1,N[C@@H](Cc1c[nH]cn1)C(=O)O,0,0,0,0
3-heptanol,328,1,CCC(CCCC)O,0,0,0,0
"Cyclohexane, 1,1,3,5-tetramethyl-, cis-",311.25,1,C[C@H]1C[C@@H](C)CC(C)(C)C1,0,0,0,0
"Phenol, 3,4,5-trimethyl-",382.25,1,Cc1cc(O)cc(C)c1C,0,0,0,0
1-bromononane,363.15,1,CCCCCCCCCBr,0,0,0,0
"Benzoic acid, 2-amino-3,5-dichloro- (9CI)",435.25,1,Nc1c(Cl)cc(Cl)cc1C(=O)O,0,0,0,1
"Methane, trichloronitro-",346.15,1,O=[N+]([O-])C(Cl)(Cl)Cl,0,0,0,0
chlorobenzene,297.15,1,C1=CC=C(C=C1)Cl,0,0,0,0
"Benzoic acid, 4-hydroxy-, propyl ester",397.75,1,CCCOC(=O)c1ccc(O)cc1,0,0,0,1
2-methylhexan-3-ol,313.706,1,CCCC(O)C(C)C,0,0,0,0
"1-Piperidinebutanol, alpha,alpha-diphenyl-",506.65,1,OC(CCCN1CCCCC1)(c1ccccc1)c1ccccc1,0,0,0,0
1-Pentyn-3-ol,302.15,1,C#CC(O)CC,0,0,0,0
"4-ethoxybenzene-1,2-diamine",436.95,1,CCOc1ccc(N)c(N)c1,0,0,0,0
"Ergoline, 6,8beta-dimethyl- (8CI)",473.35,1,C[C@@H]1C[C@@H]2c3cccc4[nH]cc(c34)C[C@H]2N(C)C1,0,0,0,0
Diisopropyl benzene,349.15,1,CC(C)c1ccccc1C(C)C,0,0,0,0
"N,N-dimethylnaphthalen-2-amine",396.55,1,CN(C)c1ccc2ccccc2c1,0,0,0,0
chloromethyl thiocyanate,357.05,1,N#CSCCl,0,0,0,0
"1,3-Cyclohexadiene, 1-methyl-4-(1-methylethyl)-",319.25,1,CC1=CC=C(C(C)C)CC1,0,0,0,0
"p-Toluidine, alpha,alpha,alpha-trifluoro-2,6-dinitro-N,N-dipropyl-",450.15,1,CCCN(CCC)c1c([N+](=O)[O-])cc(C(F)(F)F)cc1[N+](=O)[O-],0,0,0,0
"3,5-Pyrazolidinedione, 1,2-diphenyl-4-propyl-",444.45,1,CCCC1C(=O)N(c2ccccc2)N(c2ccccc2)C1=O,0,0,0,0
"1,3-di(propan-2-yl)benzene",349,1,CC(C)c1cccc(c1)C(C)C,0,0,0,0
"1,3-Cyclopentanedicarboxylic acid, dibutyl ester",434.35,1,CCCCOC(=O)C1CCC(C(=O)OCCCC)C1,0,0,0,1
"2,3-dichlorobuta-1,3-diene",310.35,1,C=C(Cl)C(=C)Cl,0,0,0,0
(Z)-dec-5-ene,318.65,1,CCCC/C=C\CCCC,0,0,0,0
"2-ethylisoindole-1,3-dione",394.95,1,CCN1C(=O)c2ccccc2C1=O,0,0,0,0
"2,2,3,3,4,4,4-heptafluorobutanoyl 2,2,3,3,4,4,4-heptafluorobutanoate",292.05,1,O=C(OC(=O)C(F)(F)C(F)(F)C(F)(F)F)C(F)(F)C(F)(F)C(F)(F)F,0,0,0,0
1-pentylcyclopentene,324.45,1,CCCCCC1=CCCC1,0,0,0,0
2-METHYL-1-UNDECANOL,392,1,CCCCCCCCCC(C)CO,0,0,0,0
2-[di(propan-2-yloxy)methoxy]propane,315.15,1,CC(C)OC(OC(C)C)OC(C)C,0,0,0,0
"1,2,3-BENZENETRIOL",458,1,Oc1cccc(O)c1O,0,0,0,0
7-Bromoquinoline,405.95,1,Brc1ccc2cccnc2c1,0,0,0,0
"1-Triazene-1-carbothioamide, 3-(3,4-dichlorophenyl)- (9CI)",442.25,1,NC(=S)N=NNc1ccc(Cl)c(Cl)c1,0,0,0,0
"4,6-dimethylpyrimidine",329.15,1,Cc1cc(C)ncn1,0,0,0,0
1-(2-methylpropoxy)butane,295.95,1,CCCCOCC(C)C,0,0,0,0
"Benzenesulfonyl chloride, 4-chloro-",380.15,1,O=S(=O)(Cl)c1ccc(Cl)cc1,0,0,0,0
heptanal,313,1,C(CCCCCC)=O,0,0,0,0
"3,3-dimethylhex-1-ene",283.85,1,C=CC(C)(C)CCC,0,0,0,0
"Semicarbazide, 4-methyl-3-thio- (8CI)",328.75,1,CNC(=S)NN,0,0,0,0
2-isopropylcyclohexanone,338,1,C(C)(C)C1C(CCCC1)=O,0,0,0,0
"Hexanedioic acid, diethenyl ester (9CI)",395.35,1,C=COC(=O)CCCCC(=O)OC=C,0,0,0,1
"Carbonic acid, diphenyl ester",392.55,1,O=C(Oc1ccccc1)Oc1ccccc1,0,0,0,1
dibutyl propanedioate,390.55,1,CCCCOC(=O)CC(=O)OCCCC,0,0,0,0
"2-Naphthalenol, 1-(2-phenyldiazenyl)-",563.346,1,Oc1ccc2ccccc2c1N=Nc1ccccc1,0,0,0,0
"1,4-dimethylnaphthalene",382.35,1,Cc1ccc(C)c2ccccc12,0,0,0,0
3-fluorobenzonitrile,340.15,1,N#Cc1cccc(F)c1,0,0,0,0
TITANIUM DIISOPROPOXIDE BIS(ETHYLACETOACETATE),300.15,1,CC(C)[O-].CC(C)[O-].CCCC(=O)CC(=O)[O-].CCCC(=O)CC(=O)[O-].[Ti+4],0,1,0,0
"Acetic acid, (2,4,5-trichlorophenoxy)-, 2-ethylhexyl ester",418.05,1,CCCCC(CC)COC(=O)COc1cc(Cl)c(Cl)cc1Cl,0,0,0,1
n-NONYL n-UNDECYL PHTHALATE,524,1,CCCCCCCCCCCOC(=O)c1ccccc1C(=O)OCCCCCCCCC,0,0,0,0
"2,3,5,6-Tetrafluoro-4-(trifluoromethyl)phenol",326.15,1,Oc1c(F)c(F)c(C(F)(F)F)c(F)c1F,0,0,0,0
"N-(2,4-dimethylphenyl)-3-oxobutanamide",444.15,1,CC1=CC(=C(C=C1)NC(=O)CC(=O)C)C,0,0,0,0
"1,3-Cyclohexadiene, 2-methyl-5-(1-methylethyl)-",320.35,1,CC1=CCC(C(C)C)C=C1,0,0,0,0
TRIETHYLGERMANE,278.15,1,CC[GeH](CC)CC,0,1,0,0
2-ethylcycloheptanone,344,1,C(C)C1C(CCCCC1)=O,0,0,0,0
N-phenylacetamide,447.15,1,CC(=O)NC1=CC=CC=C1,0,0,0,0
"4,4',4''-Trichlorotrityl alcohol",523.25,1,OC(c1ccc(Cl)cc1)(c1ccc(Cl)cc1)c1ccc(Cl)cc1,0,0,0,0
methyl (E)-3-dimethoxyphosphoryloxybut-2-enoate,352.15,1,CC(=CC(=O)OC)OP(=O)(OC)OC,0,0,0,0
(1-acetyloxy-2-methylprop-2-enyl) acetate,488.15,1,CC(=C)C(OC(=O)C)OC(=O)C,0,0,0,0
"(1,1'-Biphenyl)-4,4'-diamine, 3,3'-difluoro- (9CI)",425.35,1,Nc1ccc(-c2ccc(N)c(F)c2)cc1F,0,0,0,0
5-ethylidene-2-norbornene,302,1,C(C)=C1C2C=CC(C1)C2,0,0,0,0
triethoxymethoxyethane,325.95,1,CCOC(OCC)(OCC)OCC,0,0,0,0
3-phenylpiperidine,388.638,1,c1ccc(C2CCCNC2)cc1,0,0,0,0
"1,2,3-Propanetriol, 1,3-dinitrate (9CI)",329.95,1,O=[N+]([O-])OCC(O)CO[N+](=O)[O-],0,0,0,0
"N,N'-diphenylmethanediimine",419.25,1,C(=Nc1ccccc1)=Nc1ccccc1,0,0,0,0
"Pipecolic acid, 1-nitroso-",463.25,1,O=NN1CCCCC1C(=O)O,0,0,0,1
"Benzaldehyde, 5-chloro-2-hydroxy-",365.35,1,O=Cc1cc(Cl)ccc1O,0,0,0,0
furfural,331,1,C(C1=CC=CO1)=O,0,0,0,0
"1,2,3-trichloropropane",355.15,1,C(C(CCl)Cl)Cl,0,0,0,0
1H-Purin-6-amine,595.86,1,Nc1[nH]cnc2ncnc1-2,0,0,0,0
"1,2-dibromo-1,1-difluoroethane",282.65,1,FC(F)(Br)CBr,0,0,0,0
1-hexanol,332,1,C(CCCCC)O,0,0,0,0
methyl 3-hydroxybenzoate,399.85,1,COC(=O)c1cccc(O)c1,0,0,0,0
"1-Propanone, 1-phenyl-",360.54,1,CCC(=O)c1ccccc1,0,0,0,0
"1,2,4-Thiadiazole, 5-ethoxy-3-(trichloromethyl)-",380.95,1,CCOc1nc(C(Cl)(Cl)Cl)ns1,0,0,0,0
N-propan-2-ylaniline,361.15,1,CC(C)NC1=CC=CC=C1,0,0,0,0
"2,4-Imidazolidinedione, 1,3-bis(hydroxymethyl)-5,5-dimethyl-",410.65,1,CC1(C)C(=O)N(CO)C(=O)N1CO,0,0,0,0
"(1,1'-Biphenyl)-4-amine, 4'-fluoro- (9CI)",430.05,1,Nc1ccc(-c2ccc(F)cc2)cc1,0,0,0,0
ethyl N-phenylmethanimidate,344.15,1,CCOC=Nc1ccccc1,0,0,0,0
"Guanidine, 1-nitro-",422.45,1,N=C(N)N[N+](=O)[O-],0,0,0,0
furan,237,1,O1C=CC=C1,0,0,0,0
"Peroxide, dibenzoyl",427.389,1,O=C(OOC(=O)c1ccccc1)c1ccccc1,0,0,0,0
heptyl butanoate,363.75,1,CCCCCCCOC(=O)CCC,0,0,0,0
"Ethane, 1,1,2,2-tetrabromo-",370.15,1,BrC(Br)C(Br)Br,0,0,0,0
"Pyrazole, 3-methyl-",366.15,1,Cc1cc[nH]n1,0,0,0,0
"3-ethoxypropane-1,2-diol",372.65,1,CCOCC(O)CO,0,0,0,0
2-methyl-6-propan-2-ylphenol,368.75,1,Cc1cccc(C(C)C)c1O,0,0,0,0
4-(4-aminophenoxy)aniline,492.15,1,C1=CC(=CC=C1N)OC2=CC=C(C=C2)N,0,0,0,0
"N,N-diethylpropanamide",346.75,1,CCC(=O)N(CC)CC,0,0,0,0
3-buten-2-ol,293,1,CC(C=C)O,0,0,0,0
(3Z)-hept-3-ene,264,1,CCC/C=C\CC,0,0,0,0
"Benzenepropanoic acid, 3-amino-alpha-ethyl-2,4,6-triiodo-",546.95,1,CCC(Cc1c(I)cc(I)c(N)c1I)C(=O)O,0,0,0,1
"butane-1,3-diol",382,1,OCCC(C)O,0,0,0,0
tert-butylmethylether,245,1,C(C)(C)(C)OC,0,0,0,0
pentylbenzene,339,1,C(CCCC)C1=CC=CC=C1,0,0,0,0
"Benzene, 1,2,3,5-tetrachloro-",383.15,1,Clc1cc(Cl)c(Cl)c(Cl)c1,0,0,0,0
"2,5-Pyrrolidinedione, 1-methyl-",379.05,1,CN1C(=O)CCC1=O,0,0,0,0
"2,5,5-trimethylheptane",312.85,1,CCC(C)(C)CCC(C)C,0,0,0,0
TANTALUM(V) ETHOXIDE,313.15,1,CC[O-].CC[O-].CC[O-].CC[O-].CC[O-].[Ta+5],0,1,0,0
sec-butylacetate,289,1,C(C)(CC)OC(C)=O,0,0,0,0
"Butanamide, 3-oxo-N-phenyl-",435.15,1,CC(=O)CC(=O)Nc1ccccc1,0,0,0,0
"Propanoic acid, 3,3'-thiobis-, didodecyl ester",537.95,1,CCCCCCCCCCCCOC(=O)CCSCCC(=O)OCCCCCCCCCCCC,0,0,0,1
2-Acetylamino-5-aminoanisole,396.75,1,COc1cc(N)ccc1NC(C)=O,0,0,0,0
"Benzenepropanol, gamma-methyl-",375.25,1,CC(CCO)c1ccccc1,0,0,0,0
"Ethanol, 2-(methoxymethoxy)-",310.95,1,COCOCCO,0,0,0,0
Phthaloyl chloride (8CI),408.55,1,O=C(Cl)c1ccccc1C(=O)Cl,0,0,0,0
"1H-Purine-2,6,8(3H)-trione, 7,9-dihydro-1,3,7-trimethyl-",515.25,1,Cn1c(=O)c2c([nH]c(=O)n2C)n(C)c1=O,0,0,0,0
"DECAN-1,10-DIOL",425.1,1,OCCCCCCCCCCO,0,0,0,0
"1,6-Octadiene, 3,7-dimethyl-",315.45,1,C=CC(C)CCC=C(C)C,0,0,0,0
Di(benzothiazol-2-yl) disulphide,548.95,1,c1ccc2sc(SSc3nc4ccccc4s3)nc2c1,0,0,0,0
methyl ethanoate,263,1,COC(=O)C,0,0,0,0
"Isocyanic acid, p-phenylene ester (6CI,7CI,8CI)",365.55,1,O=C=Nc1ccc(N=C=O)cc1,0,0,0,1
"Benzoic acid, p-chloro-, methyl ester (8CI)",379.85,1,COC(=O)c1ccc(Cl)cc1,0,0,0,1
"1-Naphthalenesulfonic acid, 3,6-bis(1,1-dimethylethyl)-, ethyl ester",507.45,1,CCOS(=O)(=O)c1cc(C(C)(C)C)cc2cc(C(C)(C)C)ccc12,0,0,0,1
alpha-HYDROXYISOBUTYRIC acid,396,1,CC(C)(O)C(=O)O,0,0,0,1
3-butenenitrile,294,1,C(CC=C)#N,0,0,0,0
2-bromo-2-methylpropanoyl bromide,376.15,1,CC(C)(Br)C(=O)Br,0,0,0,0
"3,5-dimethyl-1-phenylpyrazole",391.75,1,Cc1cc(C)n(-c2ccccc2)n1,0,0,0,0
3-methylbenzonitrile,360.15,1,CC1=CC=CC(=C1)C#N,0,0,0,0
"3,9-Acridinediamine (9CI)",557.45,1,Nc1ccc2c(N)c3ccccc3nc2c1,0,0,0,0
BORON METHOXYETHOXIDE,386.15,1,COC(C)[O-].COC(C)[O-].COC(C)[O-].[B+3],0,1,0,0
Ethyl acetanilide,325.15,1,CCCC(=O)Nc1ccccc1,0,0,0,0
bis[[chloro(dimethyl)silyl]oxy]-dimethylsilane,326.45,1,C[Si](C)(Cl)O[Si](C)(C)O[Si](C)(C)Cl,1,1,0,0
"Urea, N-2-propen-1-yl-",328.45,1,C=CCNC(N)=O,0,0,0,0
2-phenoxybenzoic acid,405.15,1,O=C(O)c1ccccc1Oc1ccccc1,0,0,0,1
"p-Cresol, 2-amino- (8CI)",371.75,1,Cc1ccc(O)c(N)c1,0,0,0,0
"1,2-dichloro-4-(trifluoromethyl)benzene",338.15,1,C1=CC(=C(C=C1C(F)(F)F)Cl)Cl,0,0,0,0
"cyclododeca-1,5,9-triene",360,1,C1C=CCCC=CCCC=CC1,0,0,0,0
"Hexanedioic acid, 1,6-bis(2-methylpropyl) ester",395.75,1,CC(C)COC(=O)CCCCC(=O)OCC(C)C,0,0,0,1
methyl 3-methoxypropanoate,320.15,1,COCCC(=O)OC,0,0,0,0
"Benzenemethanol, 2-amino-",399.45,1,Nc1ccccc1CO,0,0,0,0
"Benzene, 1-chloro-4-(chloromethyl)-",360.45,1,ClCc1ccc(Cl)cc1,0,0,0,0
2-benzyl-4-chlorophenol,461.15,1,C1=CC=C(C=C1)CC2=C(C=CC(=C2)Cl)O,0,0,0,0
"Benzene, 1-(bromomethyl)-3-nitro-",408.95,1,O=[N+]([O-])c1cccc(CBr)c1,0,0,0,0
1-bromo-2-methylbenzene,352.15,1,CC1=CC=CC=C1Br,0,0,0,0
"Benzenamine, 2,6-bis(1-methylethyl)-",481.35,1,CC(C)c1cccc(C(C)C)c1N,0,0,0,0
p-tert-BUTYLSTYRENE,352,1,C=Cc1ccc(C(C)(C)C)cc1,0,0,0,0
1-methoxypropan-2-yl acetate,319.15,1,CC(COC)OC(=O)C,0,0,0,0
methyl 2-iodobenzoate,383.45,1,COC(=O)c1ccccc1I,0,0,0,0
"1,2-dihydroacenaphthylene",398.15,1,C1CC2=CC=CC3=C2C1=CC=C3,0,0,0,0
"1,4-Naphthalenedione",414.15,1,O=C1C=CC(=O)c2ccccc21,0,0,0,0
trifluoromethylbenzene,285.15,1,C1=CC=C(C=C1)C(F)(F)F,0,0,0,0
"2-Butanone, 4-(4-hydroxyphenyl)-",396.05,1,CC(=O)CCc1ccc(O)cc1,0,0,0,0
"2-O-(8-methylnonyl) 1-O-octyl benzene-1,2-dicarboxylate",497.75,1,CCCCCCCCOC(=O)c1ccccc1C(=O)OCCCCCCCC(C)C,0,0,0,0
"2-ethylhexane-1,3-diol",400.15,1,CCCC(C(CC)CO)O,0,0,0,0
"Nonane, 1,1,1,9-tetrachloro-",389.35,1,ClCCCCCCCCC(Cl)(Cl)Cl,0,0,0,0
3-ethylthiophene,295.95,1,CCc1ccsc1,0,0,0,0
"Carbamic acid, methyl-, 1-naphthyl ester",426.15,1,CNC(=O)Oc1cccc2ccccc12,0,0,0,1
4-methylcyclohexanone,321,1,CC1CCC(CC1)=O,0,0,0,0
"Propaneperoxoic acid, 2,2-dimethyl-, 1,1-dimethylethyl ester",326.65,1,CC(C)(C)OOC(=O)C(C)(C)C,0,0,0,1
"Ether, benzyl methyl (8CI)",326.15,1,COCc1ccccc1,0,0,0,0
(1R)-3-methylcyclohexan-1-ol,335.95,1,CC1CCC[C@@H](O)C1,0,0,0,0
"6-methylheptyl 2-(2,4,5-trichlorophenoxy)propanoate",480.15,1,CC(C)CCCCCOC(=O)C(C)OC1=CC(=C(C=C1Cl)Cl)Cl,0,0,0,0
"2,2,3,3,4,4,5-heptafluoro-5-(1,1,2,2,3,3,4,4,4-nonafluorobutyl)oxolane",290.75,1,FC(F)(F)C(F)(F)C(F)(F)C(F)(F)C1(F)OC(F)(F)C(F)(F)C1(F)F,0,0,0,0
Azacyclotridecan-2-one,461.35,1,O=C1CCCCCCCCCCCN1,0,0,0,0
"4,5,6,7-tetrachloro-2-benzofuran-1,3-dione",635.15,1,C12=C(C(=C(C(=C1Cl)Cl)Cl)Cl)C(=O)OC2=O,0,0,0,0
"Ethanol, 2-(ethenyloxy)- (9CI)",323.15,1,C=COCCO,0,0,0,0
1-(1-hydroperoxycyclohexyl)peroxycyclohexan-1-ol,430.15,1,C1CCC(CC1)(O)OOC2(CCCCC2)OO,0,0,0,0
2-methylaniline,358.15,1,CC1=CC=CC=C1N,0,0,0,0
"1H-Pyrazole, 3-methyl-5-phenyl- (9CI)",429.35,1,Cc1cc(-c2ccccc2)[nH]n1,0,0,0,0
"Methanesulfonic acid, propyl ester",365.55,1,CCCOS(C)(=O)=O,0,0,0,1
"1,1,3-trimethylcyclohexane",298.35,1,CC1CCCC(C)(C)C1,0,0,0,0
4-methylpentan-2-yl acetate,318.15,1,CC(C)CC(C)OC(=O)C,0,0,0,0