compound,flashpoint,pure substance,smiles,is_silicon,is_metallic,is_tin,is_acid
"Propane, 1,2,2,3-tetrachloro-",335.65,1,ClCC(Cl)(Cl)CCl,0,0,0,0
"5-Hepten-2-one, 6-methyl-",323.15,1,CC(=O)CCC=C(C)C,0,0,0,0
"(2,4-dimethylphenyl) acetate",362.35,1,CC(=O)Oc1ccc(C)cc1C,0,0,0,0
"2,4-Imidazolidinedione, 1,3-dibromo-5,5-dimethyl-",378.25,1,CC1(C)C(=O)N(Br)C(=O)N1Br,0,0,0,0
trans-2-heptene,267,1,C\C=C\CCCC,0,0,0,0
"2-Propyn-1-ol, 1,1-diphenyl- (8CI)",428.05,1,C#CC(O)(c1ccccc1)c1ccccc1,0,0,0,0
"Acetamide, N-hydroxy- (9CI)",400.75,1,CC(=O)NO,0,0,0,0
"dimethylcarbamothioylsulfanyl N,N-dimethylcarbamodithioate",411.15,1,CN(C)C(=S)SSC(=S)N(C)C,0,0,0,0
"9,10-Anthracenedione, 1,3-dihydroxy- (9CI)",552.15,1,O=C1c2ccccc2C(=O)c2c(O)cc(O)cc21,0,0,0,0
tetratetracontane,721.35,1,CCCCCCCCCCCCCCCCCCCCCCCCCCCCCCCCCCCCCCCCCCCC,0,0,0,0
"Benzenamine, 2-methyl-5-nitro-",426.15,1,Cc1ccc([N+](=O)[O-])cc1N,0,0,0,0
2-propylaniline,370,1,C(CC)C1=C(N)C=CC=C1,0,0,0,0
"Pseudourea, 1-methyl-2-thio- (7CI)",312.25,1,CNC(=N)S,0,0,0,0
isopentylpropanoate,319,1,C(CC(C)C)OC(CC)=O,0,0,0,0
3-Chlorooctane,325.7,1,CCCCCC(Cl)CC,0,0,0,0
2-phenylbutanoic acid,443.35,1,CCC(C(=O)O)c1ccccc1,0,0,0,1
"Pyrazine, 2,3-dimethyl-",327.55,1,Cc1nccnc1C,0,0,0,0
"Benzophenone, 4-chloro- (8CI)",449.25,1,O=C(c1ccccc1)c1ccc(Cl)cc1,0,0,0,0
TRI-n-BUTYLCHLOROTIN,393.15,1,CCCC[Sn](Cl)(CCCC)CCCC,0,1,1,0
"3,4,5,6-Tetrachloro-1,2-benzenediol  (9CI)",413.85,1,Oc1c(O)c(Cl)c(Cl)c(Cl)c1Cl,0,0,0,0
"Propane, 1-bromo-3-chloro-",311.15,1,ClCCCBr,0,0,0,0
"2,2-dimethylcyclohexan-1-one",323.25,1,CC1(C)CCCCC1=O,0,0,0,0
"1H-Benzimidazole, 2-(4-thiazolyl)-",499.35,1,c1ccc2[nH]c(-c3cscn3)nc2c1,0,0,0,0
"1,2,4-Benzenetricarboxylic acid, triallyl ester (7CI,8CI)",464.45,1,C=CCOC(=O)c1ccc(C(=O)OCC=C)c(C(=O)OCC=C)c1,0,0,0,1
1-phenylpiperidine,379.25,1,c1ccc(N2CCCCC2)cc1,0,0,0,0
"Butylamine, 1,1,3,3-tetramethyl- (6CI,7CI,8CI)",305.15,1,CC(C)(C)CC(C)(C)N,0,0,0,0
Ethyl sulfone (8CI),391.55,1,CCS(=O)(=O)CC,0,0,0,0
9-methyl-9-azabicyclo[3.3.1]nonan-3-one,369.05,1,CN1C2CCCC1CC(=O)C2,0,0,0,0
1-bromo-4-methoxybenzene,369.798,1,COc1ccc(Br)cc1,0,0,0,0
"Oxirane, butyl- (9CI)",294.95,1,CCCCC1CO1,0,0,0,0
4-methylidene-1-propan-2-ylcyclohexene,319.65,1,C=C1CC=C(C(C)C)CC1,0,0,0,0
n-HEXADECANOIC acid,461,1,CCCCCCCCCCCCCCCC(=O)O,0,0,0,1
2-fluoronaphthalene,338.55,1,Fc1ccc2ccccc2c1,0,0,0,0
"2-Pyrrolidinone, 1-octyl-",402.15,1,CCCCCCCCN1CCCC1=O,0,0,0,0
"Benzeneacetonitrile, alpha-(beta-D-glucopyranosyloxy)- (9CI)",545.65,1,N#CC(O[C@@H]1O[C@H](CO)[C@@H](O)[C@H](O)[C@H]1O)c1ccccc1,0,0,0,0
2-ethylpent-1-ene,263,1,CCCC(=C)CC,0,0,0,0
2-Decanone,344.15,1,CCCCCCCCC(C)=O,0,0,0,0
3-Chloro-3-methylnonane,345.3,1,CCCCCCC(C)(Cl)CC,0,0,0,0
"Phenol, pentachloro-",406.85,1,Oc1c(Cl)c(Cl)c(Cl)c(Cl)c1Cl,0,0,0,0
"1-Butanamine, N-butyl-N-nitroso-",378.45,1,CCCCN(CCCC)N=O,0,0,0,0
"Butane, 1,4-dibromo-",338.35,1,BrCCCCBr,0,0,0,0
"Benzene, 1,2,4-trichloro-5-nitro-",402.85,1,O=[N+]([O-])c1cc(Cl)c(Cl)cc1Cl,0,0,0,0
"Benzaldehyde, 3-nitro-",401.75,1,O=Cc1cccc([N+](=O)[O-])c1,0,0,0,0
"1-fluoro-3,5-dimethylbenzene",308,1,FC1=CC(=CC(=C1)C)C,0,0,0,0
"1,3,5-Triazine, 2,4,6-trichloro-",487.55,1,Clc1nc(Cl)nc(Cl)n1,0,0,0,0
"Butane, 1-(2-(ethenyloxy)ethoxy)- (9CI)",315.05,1,C=COCCOCCCC,0,0,0,0
"1-Propanone, 2-methyl-1,2-di-3-pyridinyl-",462.45,1,CC(C)(C(=O)c1cccnc1)c1cccnc1,0,0,0,0
"Quino(2,3-b)acridine-7,14-dione, 5,12-dihydro-2,9-dimethyl-",494.55,1,Cc1ccc2[nH]c3cc4c(=O)c5cc(C)ccc5[nH]c4cc3c(=O)c2c1,0,0,0,0
"1-N,1-N-diethylpentane-1,4-diamine",341.45,1,CCN(CC)CCCC(C)N,0,0,0,0
tert-butylpropanoate,293,1,C(C)(C)(C)OC(CC)=O,0,0,0,0
"Ethane, 1,2-diisothiocyanato- (9CI)",395.15,1,S=C=NCCN=C=S,0,0,0,0
"1,4-dichlorobut-2-yne",433.15,1,ClCC#CCCl,0,0,0,0
"1,2,4-BUTANETRIOL",440,1,OCCC(O)CO,0,0,0,0
3-methyl-1-butanol,316,1,CC(CCO)C,0,0,0,0
"propane-1,3-diol",447.15,1,C(CO)CO,0,0,0,0
2-formyloxyethyl formate,366.15,1,C(COC=O)OC=O,0,0,0,0
di-sec-butylamine,297,1,C(C)(CC)NC(C)CC,0,0,0,0
"Butanoic acid, 3-methyl-, 2-methylpropyl ester",323.65,1,CC(C)COC(=O)CC(C)C,0,0,0,1
"1-bromo-2,4-dichlorobenzene",379.85,1,Clc1ccc(Br)c(Cl)c1,0,0,0,0
4-methylnonane,311,1,CC(CCC)CCCCC,0,0,0,0
3-methyl-2-butanone,272,1,CC(C(C)=O)C,0,0,0,0
ethyl eicosanoate,444,1,CCCCCCCCCCCCCCCCCCCC(=O)OCC,0,0,0,0
2-nitrothiophene,367.05,1,O=[N+]([O-])c1cccs1,0,0,0,0
"Benzoic acid, pentyl ester",386.35,1,CCCCCOC(=O)c1ccccc1,0,0,0,1
3-Chloro-3-methyloctane,333.1,1,CCCCCC(C)(Cl)CC,0,0,0,0
N-pyridin-3-ylacetamide,424.95,1,CC(=O)Nc1cccnc1,0,0,0,0
"2-methylpropane-1,2-diol",346.85,1,CC(C)(O)CO,0,0,0,0
4-chlorobenzonitrile,381.15,1,N#Cc1ccc(Cl)cc1,0,0,0,0
"3-Chloro-2,2,3-trimethylhexane",324.8,1,CCCC(C)(Cl)C(C)(C)C,0,0,0,0
methyl 4-hydroxy-3-methoxybenzoate,393.35,1,COC(=O)c1ccc(O)c(OC)c1,0,0,0,0
octyl 2-methylprop-2-enoate,364.15,1,CCCCCCCCOC(=O)C(=C)C,0,0,0,0
"Ethanol, 2-(2-(dimethylamino)ethoxy)-",344.75,1,CN(C)CCOCCO,0,0,0,0
furan-2-carbonitrile,308.15,1,N#Cc1ccco1,0,0,0,0
5-Methyl-1-hexyn-3-ol,323.25,1,C#CC(O)CC(C)C,0,0,0,0
"2,3-DICHLOROBUTANE",291.1,1,CC(Cl)C(C)Cl,0,0,0,0
(Ethylsulphonyl)ethylene,382.15,1,C=CS(=O)(=O)CC,0,0,0,0
thioxanthen-9-one,476.95,1,O=c1c2ccccc2sc2ccccc12,0,0,0,0
"Peroxide, acetyl nitro",357.85,1,CC(=O)OO[N+](=O)[O-],0,0,0,0
1-(4-ETHYLPHENYL)-2-PHENYLETHANE,404,1,CCc1ccc(CCc2ccccc2)cc1,0,0,0,0
"Adenine, N-methyl- (8CI)",525.05,1,CNc1ncnc2nc[nH]c12,0,0,0,0
"Acetic acid, phenoxy-, 2-propenyl ester",408.15,1,C=CCOC(=O)COc1ccccc1,0,0,0,1
8-Hydroxyquinoline-N-oxide,412.15,1,[O-][n+]1cccc2cccc(O)c21,0,0,0,0
"Hexasulfide, bis(1-piperidinylthioxomethyl)",576.75,1,S=C(SSSSSSC(=S)N1CCCCC1)N1CCCCC1,0,0,0,0
"1,6-Octadien-3-ol, 3,7-dimethyl-, benzoate",431.85,1,C=CC(C)(CCC=C(C)C)OC(=O)c1ccccc1,0,0,0,0
2-Pentyn-1-ol,331.15,1,CCC#CCO,0,0,0,0
"1,2,4,5-tetrachlorobenzene",428.15,1,C1=C(C(=CC(=C1Cl)Cl)Cl)Cl,0,0,0,0
"cis-1,4-dimethylcyclohexane",279,1,C[C@@H]1CC[C@@H](CC1)C,0,0,0,0
"Ethanol, 2-chloro-, phosphite (2:1)",415.35,1,OCCCl.OCCCl.OP(O)O,0,0,0,0
DIMETHYLMALONATE,363.1,1,CC(C)(C(=O)[O-])C(=O)[O-],0,0,0,0
5-methyl-1-benzofuran,362.55,1,Cc1ccc2occc2c1,0,0,0,0
"Methacrylic acid, hexyl ester (8CI)",345.25,1,C=C(C)C(=O)OCCCCCC,0,0,0,1
"2-Propenal, 2-methyl-3-phenyl-",363.45,1,CC(C=O)=Cc1ccccc1,0,0,0,0
"3,3-dimethylbutan-2-ol",351.15,1,CC(C(C)(C)C)O,0,0,0,0
"1,1,2-trichloroprop-1-ene",314.95,1,CC(Cl)=C(Cl)Cl,0,0,0,0
"1,4-diethyl-2-methylbenzene",346.1,1,CCc1ccc(CC)c(C)c1,0,0,0,0
(2E)-oct-2-ene,294,1,CCCCC/C=C/C,0,0,0,0
TRIMETHYLCHLOROTIN,370.15,1,C[Sn](C)(C)Cl,0,1,1,0
"Phosphonofluoridic acid, methyl-, 1,2,2-trimethylpropyl ester",348.65,1,CC(OP(C)(=O)F)C(C)(C)C,0,0,0,1
(1R)-1-phenylethan-1-ol,358,1,C[C@@H](O)c1ccccc1,0,0,0,0
2-iodotoluene,363,1,IC1=C(C)C=CC=C1,0,0,0,0
"2,4-dimethylfuran",273.95,1,Cc1coc(C)c1,0,0,0,0
2-methylprop-2-enoyl chloride,300.85,1,C=C(C)C(=O)Cl,0,0,0,0
"Phosphorodithioic acid, O,O-diethyl S-(2-(ethylthio)ethyl) ester",426.95,1,CCOP(=S)(OCC)SCCSCC,0,0,0,1
ethyl 2-cyanoprop-2-enoate,355.15,1,CCOC(=O)C(=C)C#N,0,0,0,0
"Propane, 1,2-epoxy-3-((alpha-phenyl-o-tolyl)oxy)- (7CI,8CI)",418.05,1,c1ccc(Cc2ccccc2OCC2CO2)cc1,0,0,0,0
"2,4,6-trimethylbenzaldehyde",378.75,1,Cc1cc(C)c(C=O)c(C)c1,0,0,0,0
"4(1H)-Pyrimidinone, 2,3-dihydro-6-propyl-2-thioxo-",441.75,1,CCCc1cc(=O)[nH]c(=S)[nH]1,0,0,0,0
"1,1'-Biphenyl, 4-nitro-",316.15,1,O=[N+]([O-])c1ccc(-c2ccccc2)cc1,0,0,0,0
"Benzeneacetonitrile, 4-hydroxy- (9CI)",410.35,1,N#CCc1ccc(O)cc1,0,0,0,0
"Benzenamine, 2,4-dichloro-",373.35,1,Nc1ccc(Cl)cc1Cl,0,0,0,0
"Benzeneacetic acid, 4-(2-methylpropyl)-",482.45,1,CC(C)Cc1ccc(CC(=O)O)cc1,0,0,0,1
nonadecylcyclohexane,475.15,1,CCCCCCCCCCCCCCCCCCCC1CCCCC1,0,0,0,0
"Hexa-2,4-dienedioic acid",450.05,1,O=C(O)C=CC=CC(=O)O,0,0,0,1
methyl 3-iodobenzoate,403.85,1,COC(=O)c1cccc(I)c1,0,0,0,0
isopentyl dodecanoate,386,1,CCCCCCCCCCCC(=O)OCCC(C)C,0,0,0,0
Aceanthrylene,461.75,1,C1=Cc2c3ccccc3cc3cccc1c23,0,0,0,0
"Propanoic acid, 3,3'-thiobis-",401.15,1,O=C(O)CCSCCC(=O)O,0,0,0,1
2-amino-2-methylpropan-1-ol,340.15,1,CC(C)(CO)N,0,0,0,0
allylamine,245,1,C(C=C)N,0,0,0,0
"1,1,2,2-tetrachloro-1-fluoroethane",298.25,1,FC(Cl)(Cl)C(Cl)Cl,0,0,0,0
1H-pyridin-2-one,454.25,1,O=c1cccc[nH]1,0,0,0,0
"Butanal, 2-methylene- (9CI)",274.15,1,C=C(C=O)CC,0,0,0,0
"Benzoic acid, (4-(hydroxyimino)-2,5-cyclohexadien-1-ylidene)hydrazide",451.05,1,O=C(NN=C1C=CC(=NO)C=C1)c1ccccc1,0,0,0,1
"Oxirane, 2,2'-(1,2-ethanediylbis(oxymethylene))bis(2-methyl- (9CI)",378.85,1,CC1(COCCOCC2(C)CO2)CO1,0,0,0,0
1-octanethiol,341,1,C(CCCCCCC)S,0,0,0,0
"2-Vinyl-1,3-dioxolane",294.15,1,C=CC1OCCO1,0,0,0,0
"Benzene, chloropentafluoro-",302.65,1,Fc1c(F)c(F)c(Cl)c(F)c1F,0,0,0,0
"4-N-(4-methylpentan-2-yl)-1-N-phenylbenzene-1,4-diamine",477.15,1,CC(C)CC(C)NC1=CC=C(C=C1)NC2=CC=CC=C2,0,0,0,0
"Propanedioic acid, (ethoxymethylene)-, diethyl ester",380.75,1,CCOC=C(C(=O)OCC)C(=O)OCC,0,0,0,1
"2,2-diethoxy-N,N-diethylethanamine",338.15,1,CCOC(CN(CC)CC)OCC,0,0,0,0
2-pentanol,307,1,CC(CCC)O,0,0,0,0
3-chloropropylbenzene,360.35,1,ClCCCc1ccccc1,0,0,0,0
"Phenol, 2-methoxy-4-propyl-",386.15,1,CCCc1ccc(O)c(OC)c1,0,0,0,0
"1H-Azepine, hexahydro-1-nitroso-",376.35,1,O=NN1CCCCCC1,0,0,0,0
DI-n-OCTYLAMINE,383.1,1,CCCCCCCCNCCCCCCCC,0,0,0,0
4-bromo-3-methylaniline,374.35,1,Cc1cc(N)ccc1Br,0,0,0,0
"2-Butenedinitrile, (E)- (9CI)",355.75,1,N#C/C=C/C#N,0,0,0,0
Phenyldimethylsilane,311,1,C1(=CC=CC=C1)[SiH](C)C,1,1,0,0
benzoyl benzoate,441.55,1,O=C(OC(=O)c1ccccc1)c1ccccc1,0,0,0,0
1-ethenylcyclohexene,295.85,1,C=CC1=CCCCC1,0,0,0,0
"Phenethyl alcohol, p-methyl- (8CI)",380.35,1,Cc1ccc(CCO)cc1,0,0,0,0
"5-Bromo-2-phenyl-1H-indene-1,3(2H)-dione",434.95,1,O=C1c2ccc(Br)cc2C(=O)C1c1ccccc1,0,0,0,0
"Phenol, 3,4-(methylenedioxy)-",392.65,1,Oc1ccc2c(c1)OCO2,0,0,0,0
pyridine-2-carbaldehyde,327.55,1,O=Cc1ccccn1,0,0,0,0
3-(trifluoromethyl)phenol,347.05,1,Oc1cccc(C(F)(F)F)c1,0,0,0,0
4-propan-2-ylcyclohexene-1-carbaldehyde,356.75,1,CC(C)C1CC=C(C=O)CC1,0,0,0,0
"Hydrazine, (1-methyl-2-phenylethyl)- (9CI)",421.15,1,CC(Cc1ccccc1)NN,0,0,0,0
[2-(ethylsulfanylmethyl)phenyl] N-methylcarbamate,396.15,1,CCSCC1=CC=CC=C1OC(=O)NC,0,0,0,0
"1,3-dichloronaphthalene",412.65,1,Clc1cc(Cl)c2ccccc2c1,0,0,0,0
3-pentanone,280,1,CCC(CC)=O,0,0,0,0
N-benzylpropan-2-amine,360.15,1,CC(C)NCc1ccccc1,0,0,0,0
"2-chloro-1,3-benzoxazole",358.15,1,Clc1nc2ccccc2o1,0,0,0,0
"ditridecyl benzene-1,2-dicarboxylate",511.15,1,CCCCCCCCCCCCCOC(=O)C1=CC=CC=C1C(=O)OCCCCCCCCCCCCC,0,0,0,0
"ethyl 2,2-dibromoacetate",342.65,1,CCOC(=O)C(Br)Br,0,0,0,0
phenyl-(4-phenylphenyl)methanone,463.85,1,O=C(c1ccccc1)c1ccc(-c2ccccc2)cc1,0,0,0,0
"Benzyl alcohol, 2,4-dinitro-",444.35,1,O=[N+]([O-])c1ccc(CO)c([N+](=O)[O-])c1,0,0,0,0
"Butyraldehyde, 3-hydroxy-",331.85,1,CC(O)CC=O,0,0,0,0
"Imidazole, 1,1'-carbonyldi- (8CI)",465.65,1,O=C(n1ccnc1)n1ccnc1,0,0,0,0
"(1Z,5E,9E)-cyclododeca-1,5,9-triene",360.95,1,C1=C\CC/C=C/CC/C=C/CC/1,0,0,0,0
"Benzenemethanol, 4-methoxy-",383.15,1,COc1ccc(CO)cc1,0,0,0,0
"2,4-dinitroaniline",497.15,1,C1=CC(=C(C=C1[N+](=O)[O-])[N+](=O)[O-])N,0,0,0,0
"4,7-dimethyl-1-benzofuran",359.55,1,Cc1ccc(C)c2occc12,0,0,0,0
1-chloroethenylbenzene,343.25,1,C=C(Cl)c1ccccc1,0,0,0,0
"2-Butene, 1-chloro-2-methyl-",281.95,1,CC=C(C)CCl,0,0,0,0
"1,2-dichloro-1-ethoxyethane",316.45,1,CCOC(Cl)CCl,0,0,0,0
"N,N-diethyl-4-methylaniline",374.25,1,CCN(CC)c1ccc(C)cc1,0,0,0,0
2H-benzotriazole,443.15,1,C1=CC2=NNN=C2C=C1,0,0,0,0
methylurea,296.25,1,CNC(N)=O,0,0,0,0
"1,4-Cyclohexanedione",355.35,1,O=C1CCC(=O)CC1,0,0,0,0
"Benzonitrile, 4-hydroxy-",397.05,1,N#Cc1ccc(O)cc1,0,0,0,0
2-(methoxymethyl)furan,295.25,1,COCc1ccco1,0,0,0,0
"Phenol, 3-methoxy-",392.25,1,COc1cccc(O)c1,0,0,0,0
Hexahydro-2H-azepin-2-one (9CI),409.85,1,O=C1CCCCCN1,0,0,0,0
"benzene-1,4-dicarbonyl chloride",453.15,1,C1=CC(=CC=C1C(=O)Cl)C(=O)Cl,0,0,0,0
"3,4-DINITROTOLUENE",453,1,Cc1ccc([N+](=O)[O-])c([N+](=O)[O-])c1,0,0,0,0
4-methyl-2-prop-2-enylphenol,374.85,1,C=CCc1cc(C)ccc1O,0,0,0,0
"1,2-diphenylethanone",410.15,1,O=C(Cc1ccccc1)c1ccccc1,0,0,0,0
"Anthraquinone, 2-methyl- (8CI)",482.15,1,Cc1ccc2c(c1)C(=O)c1ccccc1C2=O,0,0,0,0
"3,6-dimethyloct-4-yne-3,6-diol",382.15,1,CCC(C)(O)C#CC(C)(O)CC,0,0,0,0
"Propanoic acid, 2-(3-chlorophenoxy)-",419.55,1,CC(Oc1cccc(Cl)c1)C(=O)O,0,0,0,1
"Hydrazinecarbothioamide, 1-formyl- (9CI)",364.65,1,NC(=S)N(N)C=O,0,0,0,0
"Phenol, 4-chloro-2-methyl-",363.25,1,Cc1cc(Cl)ccc1O,0,0,0,0
"1-(bromomethyl)-2,3,4,5,6-pentafluorobenzene",355.15,1,Fc1c(F)c(F)c(CBr)c(F)c1F,0,0,0,0
"(1Z,5Z)-cycloocta-1,5-diene",368.15,1,C1CC=CCCC=C1,0,0,0,0
"Octanal, 2-(phenylmethylene)-",413.65,1,CCCCCCC(C=O)=Cc1ccccc1,0,0,0,0
"Pyridine, 3-(1-methyl-2-pyrrolidinyl)-, (S)- (9CI)",374.85,1,CN1CCC[C@H]1c1cccnc1,0,0,0,0
"2,2,4-TRIMETHYL-1,3-PENTANEDIOL DIISOBUTYRATE",394,1,CC(C)C(=O)OCC(C)(C)C(OC(=O)C(C)C)C(C)C,0,0,0,0
"1,1-dimethyl-3-(4-propan-2-ylphenyl)urea",373.15,1,CC(C)C1=CC=C(C=C1)NC(=O)N(C)C,0,0,0,0
1-methyl-3-prop-1-en-2-ylbenzene,331.35,1,C=C(C)c1cccc(C)c1,0,0,0,0
2-pyridinamine,236.15,1,Nc1ccccn1,0,0,0,0
ethyl 3-chlorobenzoate,388.35,1,CCOC(=O)c1cccc(Cl)c1,0,0,0,0
"2-Propenoic acid, 2-methyl-, decyl ester",387.85,1,C=C(C)C(=O)OCCCCCCCCCC,0,0,0,1
"Butanenitrile, 4-chloro-",358.15,1,N#CCCCCl,0,0,0,0
"Acetonitrile, trichloro-",283.65,1,N#CC(Cl)(Cl)Cl,0,0,0,0
"1,1,2,2-tetrachloropropane",319.05,1,CC(Cl)(Cl)C(Cl)Cl,0,0,0,0
"3,3-dimethylcyclohexan-1-one",323.25,1,CC1(C)CCCC(=O)C1,0,0,0,0
"4(1H)-Pyrimidinone, 5-butyl-2-(dimethylamino)-6-methyl- (9CI)",406.05,1,CCCCc1c(C)[nH]c(N(C)C)nc1=O,0,0,0,0
"Phenol, 2-(1,1-dimethylethyl)-4,6-dimethyl-",384.85,1,Cc1cc(C)c(O)c(C(C)(C)C)c1,0,0,0,0
"Benzoyl chloride, 3-nitro-",385.15,1,O=C(Cl)c1cccc([N+](=O)[O-])c1,0,0,0,0
"(Z)-1,2-dichlorobut-2-ene",305.55,1,C/C=C(\Cl)CCl,0,0,0,0
2-[2-[2-[2-(2-methylprop-2-enoyloxy)ethoxy]ethoxy]ethoxy]ethyl,449.55,1,[CH2]COCCOCCOCCOC(=O)C(=C)C,0,0,0,0
"1-(4-methoxy-6-methyl-1,3,5-triazin-2-yl)-3-[2-(3,3,3-trifluoropropyl)phenyl]sulfonylurea",373.15,1,CC1=NC(=NC(=N1)OC)NC(=O)NS(=O)(=O)C2=CC=CC=C2CCC(F)(F)F,0,0,0,0
"Octane, 1-((3-chloropropyl)sulfinyl)- (9CI)",450.25,1,CCCCCCCCS(=O)CCCCl,0,0,0,0
4-fluoroaniline,347.15,1,C1=CC(=CC=C1N)F,0,0,0,0
6-methylheptan-2-one,317.75,1,CC(=O)CCCC(C)C,0,0,0,0
"Formic acid, oxydi-, dimethyl ester (7CI,8CI)",353.15,1,COC(=O)OC(=O)OC,0,0,0,1
"Phosphoric acid, (1,1'-biphenyl)-2-yl diphenyl ester (9CI)",539.15,1,O=P(Oc1ccccc1)(Oc1ccccc1)Oc1ccccc1-c1ccccc1,0,0,0,1
"Butanoic acid, 4-(1-piperidinyl)cyclohexyl ester (9CI)",379.85,1,CCCC(=O)OC1CCC(N2CCCCC2)CC1,0,0,0,1
difluoro(methyl)arsane,279.05,1,C[As](F)F,0,1,0,0
"Benzeneacetic acid, (4-methoxyphenyl)methyl ester",430.35,1,COc1ccc(COC(=O)Cc2ccccc2)cc1,0,0,0,1
ISOPROPYL ACRYLATE,281,1,C=CC(=O)OC(C)C,0,0,0,0
"(1,1'-Biphenyl)-4-ol, 3,5-bis(1,1-dimethylethyl)-",441.05,1,CC(C)(C)c1cc(-c2ccccc2)cc(C(C)(C)C)c1O,0,0,0,0
"Propiolaldehyde, phenyl- (8CI)",367.55,1,O=CC#Cc1ccccc1,0,0,0,0
"(1R,2S,5R)-5-methyl-2-propan-2-ylcyclohexan-1-ol",366,1,C[C@H]1CC[C@H](C(C)C)[C@@H](O)C1,0,0,0,0
2-phenylethylacetate,375,1,C1(=CC=CC=C1)CCOC(C)=O,0,0,0,0
trans-3-hexene,248,1,CC\C=C\CC,0,0,0,0
isopropylacetate,275,1,C(C)(C)OC(C)=O,0,0,0,0
"Octane-1,8-dithiol",374.256,1,SCCCCCCCCS,0,0,0,0
"Benz(a)anthracene, 7,12-dimethyl-",327.55,1,Cc1c2ccccc2c(C)c2c1ccc1ccccc12,0,0,0,0
"Phenol, 4,4'-thiobis-",492.85,1,Oc1ccc(Sc2ccc(O)cc2)cc1,0,0,0,0
"methyl (2E)-penta-2,4-dienoate",310,1,COC(=O)/C=C/C=C,0,0,0,0
"Propanenitrile, 3-chloro-",348.75,1,N#CCCCl,0,0,0,0
tris(2-butoxyethyl) phosphate,497.15,1,CCCCOCCOP(=O)(OCCOCCCC)OCCOCCCC,0,0,0,0
1-methyl-2-prop-1-en-2-ylbenzene,328.75,1,C=C(C)c1ccccc1C,0,0,0,0
"1,2-dimethyl-3-nitrobenzene",380.15,1,CC1=C(C(=CC=C1)[N+](=O)[O-])C,0,0,0,0
"N-ethyl-N',N'-dimethylethane-1,2-diamine",297.05,1,CCNCCN(C)C,0,0,0,0
2-propylthiophene,305.45,1,CCCc1cccs1,0,0,0,0
3-(4-methylpent-3-enyl)furan,329.05,1,CC(C)=CCCc1ccoc1,0,0,0,0
"5,6,7,8-tetrahydroquinoline",359.261,1,c1cnc2c(c1)CCCC2,0,0,0,0
2-(chloromethyl)oxirane,307.15,1,C1C(O1)CCl,0,0,0,0
2-tert-butyl-4-methoxyphenol;3-tert-butyl-4-methoxyphenol,386.15,1,CC(C)(C)C1=C(C=CC(=C1)O)OC.CC(C)(C)C1=C(C=CC(=C1)OC)O,0,0,0,0
butylmethylether,263,1,C(CCC)OC,0,0,0,0
2-methyl-5-propan-2-ylbicyclo[3.1.0]hexan-3-ol,356.85,1,CC1C(O)CC2(C(C)C)CC12,0,0,0,0
"Formamide, N-(4-bromophenyl)- (9CI)",429.15,1,O=CNc1ccc(Br)cc1,0,0,0,0
"1,2-dibromo-3,4,5,6-tetrafluorobenzene",371.15,1,Fc1c(F)c(F)c(Br)c(Br)c1F,0,0,0,0
ethyl 2-oxopentanoate,344.55,1,CCCC(=O)C(=O)OCC,0,0,0,0
"N,N-diethyl-2-methylaniline",364.35,1,CCN(CC)c1ccccc1C,0,0,0,0
Neopentyl isothiocyanate,327.503,1,CC(C)(C)CN=C=S,0,0,0,0
"Phenol, 2-(1,1-dimethylethyl)-4,6-dinitro- (9CI)",398.15,1,CC(C)(C)c1cc([N+](=O)[O-])cc([N+](=O)[O-])c1O,0,0,0,0
9H-Fluoren-2-amine,477.95,1,Nc1ccc2c(c1)Cc1ccccc1-2,0,0,0,0
triphenylphosphane,453.15,1,C1=CC=C(C=C1)P(C2=CC=CC=C2)C3=CC=CC=C3,0,0,0,0
3-methylhex-1-ene,255,1,CC(CCC)C=C,0,0,0,0
"Phenol, 2-(2-propenyl)-",361.15,1,C=CCc1ccccc1O,0,0,0,0
"trans-1,3-dimethylcyclohexane",281,1,C[C@H]1CCC[C@H](C)C1,0,0,0,0
"1,3,4-Thiadiazole-2(3H)-thione, 5-amino-",373.45,1,Nc1n[nH]c(=S)s1,0,0,0,0
"2,5-norbornadiene",262,1,C12C=CC(C=C1)C2,0,0,0,0
"1,1,1,2,2,3,3-heptachloropropane",376.05,1,ClC(Cl)C(Cl)(Cl)C(Cl)(Cl)Cl,0,0,0,0
2-chloroprop-2-enenitrile,280.15,1,C=C(C#N)Cl,0,0,0,0
4-nitroaniline,472.15,1,C1=CC(=CC=C1N)[N+](=O)[O-],0,0,0,0
"Benzohydroxamic acid, N-fluoren-2-yl-",547.55,1,O=C(c1ccccc1)N(O)c1ccc2c(c1)Cc1ccccc1-2,0,0,0,1
"2,2,3,3,3-pentafluoropropan-1-ol",284.75,1,OCC(F)(F)C(F)(F)F,0,0,0,0
2-ethenylpyridine,315.15,1,C=CC1=CC=CC=N1,0,0,0,0
"Crotonaldehyde, 3-methyl- (8CI)",307.05,1,CC(C)=CC=O,0,0,0,0
"L-Glutamine, N-(4-nitrophenyl)-",584.15,1,NC(=O)CC[C@H](Nc1ccc([N+](=O)[O-])cc1)C(=O)O,0,0,0,0
4-bromobenzoyl chloride,376.15,1,O=C(Cl)c1ccc(Br)cc1,0,0,0,0
3-ethyl-3-methylheptane,314,1,C(C)C(CC)(CCCC)C,0,0,0,0
1-HEPTADECANOL,441,1,CCCCCCCCCCCCCCCCCO,0,0,0,0
"9,10-Anthracenedione, 1,2,4-trihydroxy- (9CI)",386.15,1,O=C1c2ccccc2C(=O)c2c(O)c(O)cc(O)c21,0,0,0,0
1-butyl-2-methylbenzene,345.6,1,CCCCc1ccccc1C,0,0,0,0
"Phosphonodithioic acid, methyl-, S,S-dipropyl ester",402.95,1,CCCSP(C)(=O)SCCC,0,0,0,1
"Ethane, 1,1'-oxybis(2-(2-chloroethoxy)- (9CI)",381.85,1,ClCCOCCOCCOCCCl,0,0,0,0
"6,6-dimethyl-4-methylidenebicyclo[3.1.1]heptane",304,1,C=C1CCC2CC1C2(C)C,0,0,0,0
4-methylheptan-4-ol,333.75,1,CCCC(C)(O)CCC,0,0,0,0
1-chloro-4-nitrobenzene,383.15,1,C1=CC(=CC=C1[N+](=O)[O-])Cl,0,0,0,0
"4,5-dimethyloctane",359.05,1,CCCC(C)C(C)CCC,0,0,0,0
"Benzenemethanamine, N-butyl-alpha-methyl- (9CI)",364.35,1,CCCCNC(C)c1ccccc1,0,0,0,0
"Chrysene, 6-methyl-",490.95,1,Cc1cc2c3ccccc3ccc2c2ccccc12,0,0,0,0
4-Aminophenylacetonitrile,409.45,1,N#CCc1ccc(N)cc1,0,0,0,0
ZINC NEODECANOATE,375.15,1,CC(C)(C)CCCCCC(=O)[O-].CC(C)(C)CCCCCC(=O)[O-].[Zn+2],0,1,0,0
3-(trifluoromethyl)aniline,358.15,1,C1=CC(=CC(=C1)N)C(F)(F)F,0,0,0,0
"Ethanamine, 2,2'-dithiobis(N,N-diethyl-",424.15,1,CCN(CC)CCSSCCN(CC)CC,0,0,0,0
nonanal,336,1,C(CCCCCCCC)=O,0,0,0,0
"Ethanol, 2,2'-((m-chlorophenyl)imino)di- (8CI)",467.35,1,OCCN(CCO)c1cccc(Cl)c1,0,0,0,0
"N'-(2-aminoethyl)ethane-1,2-diamine",375.15,1,C(CNCCN)N,0,0,0,0
"2,3,4-trimethylpentan-1-ol",333.15,1,CC(C)C(C)C(C)CO,0,0,0,0
"1,4-dichlorobenzene",339.15,1,C1=CC(=CC=C1Cl)Cl,0,0,0,0
cycloheptanone,329,1,C1(CCCCCC1)=O,0,0,0,0
methyl 3-hydroxypropanoate,345.75,1,COC(=O)CCO,0,0,0,0
"2,3,4,5,6-pentafluorobenzenesulfonyl chloride",354.25,1,O=S(=O)(Cl)c1c(F)c(F)c(F)c(F)c1F,0,0,0,0
"1-Propanol, 3-methoxy-",325.95,1,COCCCO,0,0,0,0
"Octylamine, N,N-dimethyl- (8CI)",338.15,1,CCCCCCCCN(C)C,0,0,0,0
"1,3-Benzenedicarbonyl dichloride",453.15,1,O=C(Cl)c1cccc(C(=O)Cl)c1,0,0,0,0
"1,2-Benzenedicarboxylic acid, bis(2-butoxyethyl) ester",444.35,1,CCCCOCCOC(=O)c1ccccc1C(=O)OCCOCCCC,0,0,0,1
1-ethenyl-2-methylbenzene,333.15,1,CC1=CC=CC=C1C=C,0,0,0,0
"2-Propanone, 1,3-dichloro-1,1,3,3-tetrafluoro-",275.15,1,O=C(C(F)(F)Cl)C(F)(F)Cl,0,0,0,0
"2,6-dimethyloct-2-ene",305.15,1,CCC(C)CCC=C(C)C,0,0,0,0
3-methyl-1-phenylbutan-1-one,362.841,1,CC(C)CC(=O)c1ccccc1,0,0,0,0
"Benzoic acid, 2-hydroxy-, ethyl ester",380.15,1,CCOC(=O)c1ccccc1O,0,0,0,1
"Methanone, (2-ethyl-3-benzofuranyl)(4-hydroxyphenyl)-",513.35,1,CCc1oc2ccccc2c1C(=O)c1ccc(O)cc1,0,0,0,0
4-[5-(4-carbamimidoylphenoxy)pentoxy]benzenecarboximidamide,376.15,1,C1=CC(=CC=C1C(=N)N)OCCCCCOC2=CC=C(C=C2)C(=N)N,0,0,0,0
"2,6-dimethylaniline;hydrochloride",364.15,1,CC1=C(C(=CC=C1)C)N.Cl,0,0,0,0